/*--------------------------------*- C++ -*----------------------------------*\
| =========                 |                                                 |
| \\      /  F ield         | OpenFOAM: The Open Source CFD Toolbox           |
|  \\    /   O peration     | Version:  2112                                  |
|   \\  /    A nd           | Website:  www.openfoam.com                      |
|    \\/     M anipulation  |                                                 |
\*---------------------------------------------------------------------------*/
FoamFile
{
    version     2.0;
    format      ascii;
    arch        "LSB;label=32;scalar=64";
    class       volScalarField;
    location    "5.96";
    object      p;
}
// * * * * * * * * * * * * * * * * * * * * * * * * * * * * * * * * * * * * * //

dimensions      [0 2 -2 0 0 0 0];

internalField   nonuniform List<scalar> 
66564
(
-3.47983e-09
4.93288e-06
1.12464e-05
1.64679e-05
1.93323e-05
1.93766e-05
1.6286e-05
9.91655e-06
2.23652e-07
-1.27509e-05
-2.89319e-05
-4.8213e-05
-7.04577e-05
-9.55383e-05
-0.000123298
-0.000153584
-0.000186225
-0.000221068
-0.000257974
-0.000296779
-0.000337327
-0.000379479
-0.000423088
-0.000468027
-0.000514159
-0.000561331
-0.000609414
-0.000658273
-0.000707779
-0.000757828
-0.000808311
-0.000859108
-0.000910103
-0.00096118
-0.00101223
-0.00106314
-0.00111382
-0.00116419
-0.00121415
-0.0012636
-0.00131245
-0.00136063
-0.00140803
-0.00145458
-0.00150018
-0.00154478
-0.00158828
-0.00163063
-0.00167175
-0.00171158
-0.00175005
-0.0017871
-0.00182267
-0.00185671
-0.00188914
-0.00191991
-0.00194898
-0.00197628
-0.00200176
-0.00202537
-0.00204707
-0.00206679
-0.00208449
-0.00210012
-0.00211363
-0.00212497
-0.0021341
-0.00214096
-0.00214553
-0.00214775
-0.00214757
-0.00214497
-0.00213989
-0.0021323
-0.00212216
-0.00210943
-0.00209407
-0.00207604
-0.00205528
-0.00203176
-0.00200543
-0.00197625
-0.00194419
-0.00190919
-0.00187122
-0.00183025
-0.00178622
-0.0017391
-0.00168885
-0.00163543
-0.00157879
-0.00151889
-0.0014557
-0.00138919
-0.00131932
-0.00124606
-0.00116935
-0.00108917
-0.0010055
-0.000918299
-0.000827542
-0.000733209
-0.00063528
-0.000533742
-0.000428579
-0.000319775
-0.000207312
-9.11919e-05
2.85776e-05
0.000152004
0.00027908
0.00040979
0.000544111
0.000682016
0.000823465
0.000968413
0.0011168
0.00126858
0.00142369
0.00158205
0.00174359
0.00190821
0.00207581
0.00224626
0.00241943
0.00259519
0.00277338
0.00295385
0.00313644
-2.59762e-06
2.21338e-06
6.93435e-06
1.03634e-05
1.18715e-05
1.09728e-05
7.36627e-06
8.62815e-07
-8.60925e-06
-2.10585e-05
-3.64585e-05
-5.47279e-05
-7.57762e-05
-9.94856e-05
-0.000125748
-0.000154425
-0.000185368
-0.000218446
-0.00025351
-0.00029043
-0.000329067
-0.00036927
-0.000410915
-0.000453874
-0.000498011
-0.000543208
-0.00058933
-0.000636243
-0.000683826
-0.000731963
-0.000780544
-0.000829461
-0.000878611
-0.000927882
-0.000977159
-0.00102635
-0.00107535
-0.00112406
-0.0011724
-0.00122028
-0.0012676
-0.00131428
-0.00136023
-0.00140538
-0.00144963
-0.00149292
-0.00153517
-0.0015763
-0.00161625
-0.00165495
-0.00169235
-0.00172835
-0.00176293
-0.00179601
-0.00182754
-0.00185746
-0.00188572
-0.00191227
-0.00193704
-0.00195998
-0.00198104
-0.00200018
-0.00201734
-0.00203246
-0.00204551
-0.00205644
-0.00206519
-0.00207173
-0.002076
-0.00207798
-0.0020776
-0.00207483
-0.00206962
-0.00206195
-0.00205177
-0.00203903
-0.0020237
-0.00200575
-0.00198512
-0.00196176
-0.00193563
-0.0019067
-0.00187492
-0.00184024
-0.00180264
-0.00176208
-0.00171851
-0.00167188
-0.00162217
-0.00156933
-0.00151331
-0.00145408
-0.00139161
-0.00132587
-0.00125681
-0.0011844
-0.0011086
-0.00102938
-0.00094672
-0.000860577
-0.000770929
-0.000677762
-0.000581054
-0.000480787
-0.000376947
-0.000269525
-0.000158505
-4.38813e-05
7.43381e-05
0.000196154
0.000321558
0.000450537
0.000583068
0.000719123
0.000858664
0.00100164
0.001148
0.00129768
0.00145064
0.00160679
0.00176606
0.00192836
0.00209358
0.00226159
0.00243227
0.00260548
0.00278108
0.00295891
0.00313881
-5.63117e-06
-1.64873e-08
4.25184e-06
6.85824e-06
7.63654e-06
6.20956e-06
2.28697e-06
-4.29276e-06
-1.36071e-05
-2.56811e-05
-4.04947e-05
-5.80084e-05
-7.81304e-05
-0.000100777
-0.00012585
-0.000153233
-0.000182813
-0.000214441
-0.000247994
-0.000283356
-0.000320389
-0.000358966
-0.000398962
-0.000440239
-0.000482691
-0.00052619
-0.000570609
-0.000615839
-0.000661747
-0.000708219
-0.000755147
-0.000802422
-0.000849943
-0.000897614
-0.00094532
-0.000992966
-0.00104045
-0.00108768
-0.00113457
-0.00118102
-0.00122696
-0.00127228
-0.00131691
-0.00136078
-0.00140379
-0.00144587
-0.00148695
-0.00152696
-0.00156581
-0.00160347
-0.00163985
-0.00167488
-0.00170851
-0.0017407
-0.00177138
-0.00180049
-0.00182797
-0.00185379
-0.00187787
-0.00190016
-0.00192061
-0.00193917
-0.00195579
-0.00197042
-0.001983
-0.00199351
-0.00200188
-0.00200807
-0.00201204
-0.00201375
-0.00201314
-0.00201018
-0.00200482
-0.00199704
-0.00198678
-0.00197401
-0.00195868
-0.00194077
-0.00192021
-0.00189697
-0.001871
-0.00184226
-0.00181071
-0.00177631
-0.00173902
-0.00169881
-0.00165563
-0.00160944
-0.0015602
-0.00150788
-0.00145242
-0.00139379
-0.00133197
-0.00126691
-0.00119859
-0.00112696
-0.00105199
-0.00097365
-0.000891912
-0.000806743
-0.000718119
-0.00062603
-0.000530453
-0.000431365
-0.00032875
-0.000222609
-0.00011293
3.01674e-07
0.000117079
0.000237396
0.000361242
0.000488605
0.000619463
0.00075379
0.000891543
0.00103267
0.00117712
0.00132485
0.00147579
0.00162987
0.00178701
0.00194712
0.0021101
0.00227583
0.00244417
0.00261498
0.00278814
0.00296349
0.00314086
-7.99401e-06
-1.20678e-06
3.29626e-06
5.67524e-06
6.16308e-06
4.4788e-06
3.98642e-07
-6.19921e-06
-1.53802e-05
-2.71549e-05
-4.152e-05
-5.84319e-05
-7.7831e-05
-9.96348e-05
-0.000123743
-0.000150078
-0.000178521
-0.000208949
-0.00024125
-0.000275294
-0.000310972
-0.000348169
-0.00038675
-0.000426605
-0.000467613
-0.000509645
-0.000552594
-0.000596347
-0.000640787
-0.000685805
-0.000731291
-0.000777134
-0.000823234
-0.000869495
-0.000915813
-0.000962089
-0.00100823
-0.00105414
-0.00109974
-0.00114493
-0.00118962
-0.00123374
-0.0012772
-0.00131992
-0.00136182
-0.00140281
-0.00144285
-0.00148184
-0.00151971
-0.00155641
-0.00159188
-0.00162603
-0.00165883
-0.00169021
-0.00172011
-0.00174848
-0.00177527
-0.00180042
-0.00182387
-0.00184557
-0.00186547
-0.00188352
-0.00189965
-0.00191383
-0.00192599
-0.00193612
-0.00194414
-0.00195001
-0.00195371
-0.00195517
-0.00195435
-0.00195122
-0.00194573
-0.00193785
-0.00192753
-0.00191473
-0.00189941
-0.00188154
-0.00186105
-0.00183792
-0.00181209
-0.00178353
-0.0017522
-0.00171805
-0.00168105
-0.00164117
-0.00159836
-0.00155257
-0.00150377
-0.00145193
-0.00139699
-0.00133892
-0.00127769
-0.00121327
-0.00114563
-0.00107471
-0.00100051
-0.000922979
-0.000842096
-0.000757827
-0.000670147
-0.000579051
-0.000484516
-0.000386512
-0.000285026
-0.000180059
-7.16072e-05
4.03487e-05
0.000155804
0.000274747
0.000397166
0.000523052
0.000652381
0.000785126
0.000921242
0.00106068
0.0012034
0.00134933
0.00149843
0.00165063
0.00180583
0.00196395
0.00212489
0.00228854
0.00245475
0.00262339
0.00279434
0.00296743
0.0031425
-8.74389e-06
-8.30756e-07
4.08913e-06
6.4607e-06
6.81241e-06
4.98457e-06
8.13164e-07
-5.78357e-06
-1.48345e-05
-2.63546e-05
-4.03228e-05
-5.67128e-05
-7.54749e-05
-9.65265e-05
-0.000119794
-0.000145185
-0.000172596
-0.000201938
-0.000233088
-0.000265931
-0.000300364
-0.000336267
-0.000373533
-0.000412054
-0.000451703
-0.000492367
-0.000533934
-0.000576291
-0.000619336
-0.000662966
-0.000707073
-0.000751548
-0.000796298
-0.000841212
-0.000886199
-0.000931162
-0.000976009
-0.00102065
-0.001065
-0.00110896
-0.00115246
-0.00119542
-0.00123774
-0.00127934
-0.00132016
-0.00136011
-0.00139912
-0.00143713
-0.00147405
-0.00150982
-0.00154439
-0.0015777
-0.00160967
-0.00164026
-0.00166941
-0.00169708
-0.00172318
-0.00174769
-0.00177053
-0.00179165
-0.00181101
-0.00182854
-0.0018442
-0.00185795
-0.00186971
-0.00187946
-0.00188714
-0.00189272
-0.00189614
-0.00189737
-0.00189635
-0.00189306
-0.00188745
-0.00187948
-0.0018691
-0.00185629
-0.00184099
-0.00182316
-0.00180275
-0.00177974
-0.00175406
-0.00172569
-0.00169457
-0.00166069
-0.00162399
-0.00158444
-0.001542
-0.00149662
-0.00144827
-0.0013969
-0.00134249
-0.00128498
-0.00122435
-0.00116057
-0.0010936
-0.00102341
-0.000949971
-0.000873252
-0.000793222
-0.000709853
-0.000623118
-0.000533009
-0.000439506
-0.000342583
-0.000242221
-0.000138421
-3.11822e-05
7.95096e-05
0.000193653
0.000311235
0.000432244
0.00055667
0.000684489
0.000815671
0.000950173
0.00108795
0.00122895
0.00137312
0.00152041
0.00167075
0.00182405
0.00198022
0.00213917
0.00230077
0.0024649
0.00263142
0.0028002
0.00297109
0.00314391
-7.03907e-06
1.69243e-06
6.98269e-06
9.39525e-06
9.68367e-06
7.76083e-06
3.51969e-06
-3.06699e-06
-1.2016e-05
-2.33206e-05
-3.69612e-05
-5.29095e-05
-7.11106e-05
-9.15128e-05
-0.000114037
-0.000138588
-0.000165087
-0.000193439
-0.000223539
-0.000255292
-0.000288578
-0.000323293
-0.000359341
-0.000396605
-0.000434977
-0.000474354
-0.000514616
-0.000555661
-0.000597389
-0.000639698
-0.000682486
-0.000725652
-0.000769098
-0.000812723
-0.000856431
-0.000900126
-0.000943725
-0.000987137
-0.00103027
-0.00107305
-0.00111539
-0.0011572
-0.00119841
-0.00123893
-0.00127869
-0.00131761
-0.00135561
-0.00139265
-0.00142864
-0.0014635
-0.00149719
-0.00152966
-0.00156083
-0.00159064
-0.00161905
-0.00164601
-0.00167145
-0.00169531
-0.00171754
-0.0017381
-0.00175692
-0.00177394
-0.00178913
-0.00180243
-0.0018138
-0.00182317
-0.00183052
-0.0018358
-0.00183896
-0.00183995
-0.00183874
-0.0018353
-0.00182957
-0.0018215
-0.00181107
-0.00179824
-0.00178295
-0.00176516
-0.00174485
-0.00172195
-0.00169643
-0.00166824
-0.00163735
-0.00160373
-0.00156733
-0.00152811
-0.00148604
-0.00144107
-0.00139317
-0.00134228
-0.00128839
-0.00123144
-0.00117142
-0.00110828
-0.001042
-0.000972534
-0.000899864
-0.000823957
-0.000744782
-0.000662313
-0.000576526
-0.000487404
-0.00039493
-0.000299084
-0.000199848
-9.72178e-05
8.80743e-06
0.000118238
0.00023107
0.000347292
0.000466891
0.000589862
0.000716176
0.000845799
0.000978691
0.00111481
0.00125411
0.00139653
0.00154202
0.00169051
0.00184192
0.00199616
0.00215312
0.0023127
0.00247476
0.00263917
0.00280581
0.00297452
0.00314512
-2.44483e-06
6.73833e-06
1.2227e-05
1.46541e-05
1.48718e-05
1.28584e-05
8.55416e-06
1.95428e-06
-6.91864e-06
-1.80586e-05
-3.14457e-05
-4.70283e-05
-6.47704e-05
-8.46163e-05
-0.000106492
-0.000130324
-0.00015602
-0.000183491
-0.000212657
-0.000243413
-0.00027566
-0.000309302
-0.000344229
-0.00038034
-0.000417532
-0.000455701
-0.000494745
-0.000534564
-0.000575056
-0.000616124
-0.00065767
-0.000699598
-0.000741804
-0.0007842
-0.000826687
-0.000869174
-0.000911577
-0.000953808
-0.000995782
-0.00103742
-0.00107863
-0.00111934
-0.00115947
-0.00119893
-0.00123766
-0.00127558
-0.00131261
-0.0013487
-0.00138378
-0.00141776
-0.0014506
-0.00148224
-0.00151262
-0.00154168
-0.00156937
-0.00159563
-0.00162041
-0.00164364
-0.00166527
-0.00168526
-0.00170355
-0.00172008
-0.0017348
-0.00174767
-0.00175863
-0.00176764
-0.00177466
-0.00177965
-0.00178254
-0.00178331
-0.00178192
-0.00177831
-0.00177246
-0.0017643
-0.00175382
-0.00174096
-0.00172569
-0.00170795
-0.00168772
-0.00166494
-0.00163957
-0.00161157
-0.00158091
-0.00154755
-0.00151144
-0.00147255
-0.00143085
-0.00138629
-0.00133883
-0.00128843
-0.00123505
-0.00117867
-0.00111925
-0.00105675
-0.000991152
-0.000922417
-0.000850517
-0.000775417
-0.000697089
-0.000615516
-0.000530672
-0.000442531
-0.000351077
-0.0002563
-0.000158184
-5.67168e-05
4.81033e-05
0.000156281
0.00026781
0.000382681
0.000500885
0.000622412
0.000747235
0.000875314
0.00100661
0.00114109
0.00127871
0.00141941
0.00156312
0.00170978
0.00185933
0.00201166
0.00216666
0.00232424
0.00248427
0.00264661
0.00281113
0.00297769
0.00314612
5.25173e-06
1.45155e-05
2.00018e-05
2.23431e-05
2.24357e-05
2.02998e-05
1.5895e-05
9.25288e-06
4.05211e-07
-1.06332e-05
-2.38229e-05
-3.91319e-05
-5.65078e-05
-7.58865e-05
-9.72179e-05
-0.000120427
-0.000145424
-0.000172133
-0.000200464
-0.000230326
-0.000261638
-0.000294295
-0.000328201
-0.00036326
-0.000399365
-0.000436419
-0.000474332
-0.000513004
-0.000552339
-0.000592245
-0.000632622
-0.000673378
-0.000714416
-0.000755643
-0.00079697
-0.000838309
-0.000879568
-0.000920669
-0.000961529
-0.00100206
-0.0010422
-0.00108184
-0.00112093
-0.00115937
-0.00119711
-0.00123406
-0.00127015
-0.00130532
-0.0013395
-0.00137263
-0.00140464
-0.00143549
-0.0014651
-0.00149342
-0.00152041
-0.00154599
-0.00157011
-0.00159273
-0.00161377
-0.0016332
-0.00165096
-0.001667
-0.00168127
-0.00169371
-0.00170428
-0.00171294
-0.00171964
-0.00172433
-0.00172697
-0.00172752
-0.00172594
-0.00172218
-0.0017162
-0.00170796
-0.00169742
-0.00168455
-0.00166929
-0.0016516
-0.00163145
-0.00160879
-0.00158358
-0.00155577
-0.00152533
-0.00149223
-0.00145642
-0.00141786
-0.00137652
-0.00133237
-0.00128535
-0.00123542
-0.00118257
-0.00112675
-0.00106793
-0.00100608
-0.00094116
-0.00087315
-0.000802014
-0.000727718
-0.000650235
-0.000569548
-0.000485636
-0.000398471
-0.000308033
-0.000214315
-0.000117308
-1.69965e-05
8.66249e-05
0.000193558
0.000303797
0.000417331
0.000534152
0.000654252
0.000777599
0.000904154
0.00103388
0.00116675
0.0013027
0.00144169
0.00158365
0.00172852
0.00187622
0.00202667
0.00217976
0.00233537
0.0024934
0.0026537
0.00281615
0.0029806
0.00314689
1.6123e-05
2.51497e-05
3.04241e-05
3.25493e-05
3.24281e-05
3.00933e-05
2.55368e-05
1.87928e-05
9.90141e-06
-1.09467e-06
-1.41685e-05
-2.92803e-05
-4.63699e-05
-6.53863e-05
-8.6266e-05
-0.00010894
-0.000133342
-0.000159382
-0.000186979
-0.000216056
-0.000246526
-0.000278293
-0.000311271
-0.000345363
-0.00038047
-0.000416502
-0.000453369
-0.000490975
-0.000529229
-0.000568043
-0.000607325
-0.000646976
-0.000686909
-0.00072703
-0.000767256
-0.000807498
-0.000847671
-0.000887694
-0.000927488
-0.000966969
-0.00100606
-0.00104469
-0.00108277
-0.00112022
-0.00115699
-0.00119301
-0.00122819
-0.00126246
-0.00129579
-0.00132809
-0.0013593
-0.00138936
-0.00141823
-0.00144584
-0.00147212
-0.00149704
-0.00152053
-0.00154254
-0.00156302
-0.0015819
-0.00159914
-0.0016147
-0.00162852
-0.00164054
-0.00165073
-0.00165905
-0.00166542
-0.00166983
-0.00167222
-0.00167256
-0.00167079
-0.00166688
-0.00166078
-0.00165246
-0.00164187
-0.00162897
-0.00161373
-0.0015961
-0.00157603
-0.00155349
-0.00152843
-0.00150081
-0.0014706
-0.00143776
-0.00140224
-0.00136401
-0.00132304
-0.00127929
-0.00123271
-0.00118326
-0.00113093
-0.00107568
-0.00101746
-0.000956245
-0.000892008
-0.00082472
-0.000754345
-0.000680849
-0.000604206
-0.0005244
-0.000441412
-0.000355215
-0.000265787
-0.000173124
-7.72177e-05
2.19468e-05
0.000124379
0.000230077
0.000339035
0.000451245
0.000566699
0.000685385
0.000807271
0.00093232
0.0010605
0.00119177
0.00132608
0.00146339
0.00160362
0.00174671
0.00189261
0.0020412
0.0021924
0.00234608
0.00250214
0.00266045
0.00282086
0.00298324
0.00314742
3.01934e-05
3.86794e-05
4.35411e-05
4.53202e-05
4.4868e-05
4.22508e-05
3.74608e-05
3.05378e-05
2.15384e-05
1.04995e-05
-2.54013e-06
-1.75262e-05
-3.44203e-05
-5.31589e-05
-7.36766e-05
-9.59178e-05
-0.000119808
-0.000145269
-0.000172231
-0.000200615
-0.000230337
-0.000261312
-0.00029345
-0.000326662
-0.000360858
-0.00039595
-0.000431851
-0.000468472
-0.000505724
-0.000543518
-0.000581769
-0.000620384
-0.000659274
-0.000698352
-0.000737533
-0.000776734
-0.000815874
-0.00085487
-0.000893645
-0.000932118
-0.000970214
-0.00100786
-0.00104497
-0.00108148
-0.00111732
-0.00115243
-0.00118673
-0.00122014
-0.00125263
-0.00128412
-0.00131455
-0.00134386
-0.001372
-0.00139891
-0.00142452
-0.00144879
-0.00147166
-0.00149308
-0.00151299
-0.00153134
-0.00154809
-0.00156317
-0.00157655
-0.00158817
-0.00159798
-0.00160595
-0.00161202
-0.00161615
-0.0016183
-0.00161842
-0.00161648
-0.00161241
-0.0016062
-0.00159779
-0.00158715
-0.00157424
-0.00155901
-0.00154144
-0.00152146
-0.00149903
-0.00147413
-0.00144671
-0.00141672
-0.00138413
-0.00134891
-0.00131101
-0.00127041
-0.00122705
-0.00118091
-0.00113195
-0.00108014
-0.00102545
-0.00096783
-0.000907255
-0.000843699
-0.000777127
-0.000707505
-0.000634805
-0.000559002
-0.000480073
-0.000398001
-0.000312765
-0.000224345
-0.000132733
-3.79192e-05
6.01096e-05
0.00016136
0.000265833
0.000373521
0.000484422
0.000598524
0.000715809
0.000836248
0.000959808
0.00108646
0.00121615
0.00134884
0.00148449
0.00162302
0.00176437
0.00190848
0.00205525
0.00220458
0.00235637
0.0025105
0.00266684
0.00282525
0.00298559
0.00314772
4.74054e-05
5.51075e-05
5.93628e-05
6.06499e-05
5.97629e-05
5.67526e-05
5.16338e-05
4.44596e-05
3.52668e-05
2.41038e-05
1.10245e-05
-3.93005e-06
-2.07067e-05
-3.9247e-05
-5.94972e-05
-8.13907e-05
-0.000104858
-0.000129835
-0.00015625
-0.000184028
-0.000213093
-0.000243363
-0.00027475
-0.000307169
-0.000340538
-0.000374772
-0.000409785
-0.000445495
-0.000481819
-0.000518668
-0.000555952
-0.000593595
-0.000631506
-0.0006696
-0.000707795
-0.00074601
-0.000784168
-0.000822188
-0.000859993
-0.000897506
-0.00093465
-0.000971353
-0.00100754
-0.00104314
-0.00107809
-0.00111232
-0.00114577
-0.00117836
-0.00121004
-0.00124074
-0.00127041
-0.00129899
-0.00132642
-0.00135264
-0.0013776
-0.00140124
-0.00142351
-0.00144435
-0.00146371
-0.00148154
-0.0014978
-0.00151242
-0.00152537
-0.00153659
-0.00154604
-0.00155368
-0.00155944
-0.0015633
-0.00156521
-0.00156512
-0.00156299
-0.00155879
-0.00155246
-0.00154398
-0.00153329
-0.00152036
-0.00150516
-0.00148763
-0.00146774
-0.00144544
-0.00142069
-0.00139346
-0.0013637
-0.00133137
-0.00129644
-0.00125887
-0.00121863
-0.00117568
-0.00112998
-0.00108151
-0.00103022
-0.00097608
-0.000919057
-0.000859121
-0.000796241
-0.000730381
-0.000661508
-0.000589601
-0.000514634
-0.00043658
-0.000355419
-0.000271139
-0.000183722
-9.31542e-05
5.75074e-07
9.7477e-05
0.000197557
0.000300814
0.000407246
0.000516851
0.000629614
0.000745513
0.000864521
0.000986609
0.00111175
0.00123989
0.00137098
0.00150499
0.00164184
0.00178148
0.00192383
0.00206881
0.00221631
0.00236623
0.00251845
0.00267286
0.00282931
0.00298766
0.00314776
6.76819e-05
7.43799e-05
7.78536e-05
7.8518e-05
7.70733e-05
7.35671e-05
6.80275e-05
6.05012e-05
5.10342e-05
3.96769e-05
2.64695e-05
1.1467e-05
-5.27493e-06
-2.37065e-05
-4.37675e-05
-6.53933e-05
-8.85289e-05
-0.000113109
-0.000139065
-0.000166326
-0.000194819
-0.000224465
-0.000255183
-0.000286895
-0.000319519
-0.000352972
-0.000387177
-0.000422053
-0.000457515
-0.000493486
-0.000529877
-0.000566609
-0.000603601
-0.00064077
-0.000678036
-0.000715322
-0.00075255
-0.000789644
-0.000826529
-0.000863128
-0.000899366
-0.00093517
-0.000970475
-0.00100521
-0.0010393
-0.00107269
-0.00110531
-0.00113711
-0.001168
-0.00119795
-0.00122688
-0.00125475
-0.00128149
-0.00130704
-0.00133136
-0.00135439
-0.00137607
-0.00139634
-0.00141518
-0.00143251
-0.00144829
-0.00146246
-0.00147499
-0.00148583
-0.00149492
-0.00150222
-0.00150769
-0.00151128
-0.00151295
-0.00151266
-0.00151036
-0.00150601
-0.00149958
-0.00149102
-0.00148028
-0.00146735
-0.00145217
-0.0014347
-0.00141489
-0.00139272
-0.00136813
-0.00134108
-0.00131155
-0.00127948
-0.00124484
-0.00120761
-0.00116774
-0.00112519
-0.00107993
-0.00103194
-0.000981169
-0.000927584
-0.000871154
-0.000811852
-0.000749645
-0.000684494
-0.000616369
-0.000545251
-0.000471117
-0.000393934
-0.000313684
-0.000230354
-0.000143933
-5.4402e-05
3.82509e-05
0.000134036
0.000232955
0.00033501
0.000440199
0.000548519
0.000659955
0.000774484
0.000892078
0.00101271
0.00113635
0.00126296
0.00139248
0.00152487
0.00166007
0.00179802
0.00193864
0.00208185
0.00222755
0.00237564
0.002526
0.00267851
0.00283303
0.00298942
0.00314754
9.09088e-05
9.64144e-05
9.89575e-05
9.88632e-05
9.67449e-05
9.26506e-05
8.65888e-05
7.86182e-05
6.87939e-05
5.71538e-05
4.37447e-05
2.86191e-05
1.18252e-05
-6.57771e-06
-2.65279e-05
-4.7975e-05
-7.0861e-05
-9.5126e-05
-0.000120707
-0.000147538
-0.00017554
-0.000204644
-0.000234776
-0.000265859
-0.000297813
-0.000330564
-0.000364034
-0.000398146
-0.000432821
-0.000467977
-0.000503542
-0.000539428
-0.000575561
-0.000611864
-0.000648258
-0.000684669
-0.00072102
-0.000757239
-0.000793251
-0.000828983
-0.00086436
-0.00089931
-0.00093377
-0.000967675
-0.00100095
-0.00103353
-0.00106536
-0.00109639
-0.00112653
-0.00115574
-0.00118396
-0.00121113
-0.0012372
-0.00126211
-0.00128581
-0.00130824
-0.00132935
-0.00134908
-0.0013674
-0.00138424
-0.00139956
-0.0014133
-0.00142542
-0.00143588
-0.00144461
-0.00145159
-0.00145677
-0.0014601
-0.00146154
-0.00146104
-0.00145858
-0.0014541
-0.00144756
-0.00143893
-0.00142816
-0.00141521
-0.00140006
-0.00138264
-0.00136293
-0.00134087
-0.00131644
-0.00128959
-0.00126028
-0.00122847
-0.00119414
-0.00115724
-0.00111773
-0.00107559
-0.00103078
-0.000983265
-0.000933008
-0.000879975
-0.000824137
-0.000765465
-0.000703925
-0.00063948
-0.000572103
-0.000501772
-0.000428466
-0.000352151
-0.000272808
-0.000190426
-0.000104993
-1.64904e-05
7.50962e-05
0.000169773
0.000267542
0.000368407
0.000472365
0.000579413
0.000689534
0.000802706
0.000918903
0.0010381
0.00116027
0.00128536
0.00141333
0.00154413
0.0016777
0.00181399
0.00195291
0.00209438
0.00223831
0.0023846
0.00253312
0.00268376
0.00283639
0.00299087
0.00314704
0.00011695
0.000121116
0.000122585
0.000121618
0.00011872
0.000113928
0.000107258
9.87619e-05
8.84873e-05
7.64818e-05
6.27944e-05
4.74635e-05
3.0545e-05
1.20975e-05
-7.82729e-06
-2.91785e-05
-5.18968e-05
-7.5929e-05
-0.000101217
-0.000127694
-0.000155287
-0.000183929
-0.000213552
-0.000244081
-0.000275441
-0.000307563
-0.000340372
-0.000373789
-0.000407743
-0.000442156
-0.000476954
-0.000512058
-0.000547395
-0.000582889
-0.000618467
-0.000654057
-0.000689584
-0.000724977
-0.000760164
-0.000795073
-0.000829633
-0.000863774
-0.00089743
-0.000930538
-0.00096303
-0.000994845
-0.00102592
-0.0010562
-0.00108562
-0.00111412
-0.00114165
-0.00116815
-0.00119357
-0.00121786
-0.00124095
-0.00126281
-0.00128336
-0.00130257
-0.00132039
-0.00133675
-0.00135161
-0.00136493
-0.00137666
-0.00138674
-0.00139514
-0.0014018
-0.00140669
-0.00140977
-0.00141098
-0.00141029
-0.00140767
-0.00140306
-0.00139642
-0.00138772
-0.00137692
-0.00136397
-0.00134884
-0.00133148
-0.00131186
-0.00128993
-0.00126565
-0.00123899
-0.00120991
-0.00117837
-0.00114434
-0.00110777
-0.00106864
-0.0010269
-0.000982533
-0.000935494
-0.000885751
-0.00083327
-0.000778022
-0.000719976
-0.000659099
-0.000595359
-0.000528729
-0.000459184
-0.0003867
-0.000311248
-0.000232808
-0.000151371
-6.69182e-05
2.05676e-05
0.000111097
0.000204674
0.000301302
0.000400989
0.00050373
0.000609516
0.000718334
0.000830164
0.000944983
0.00106276
0.00118348
0.00130708
0.00143352
0.00156275
0.00169472
0.00182937
0.00196661
0.00210637
0.00224856
0.00239308
0.0025398
0.00268861
0.00283938
0.00299198
0.00314625
0.000145678
0.000148361
0.00014865
0.000146708
0.00014292
0.000137336
0.000129973
0.000120865
0.000110061
9.76123e-05
8.35592e-05
6.79486e-05
5.08336e-05
3.22623e-05
1.22837e-05
-9.04905e-06
-3.16833e-05
-5.55634e-05
-8.06334e-05
-0.000106832
-0.000134093
-0.00016235
-0.000191539
-0.000221587
-0.000252428
-0.00028399
-0.000316206
-0.000348999
-0.000382297
-0.000416032
-0.000450126
-0.000484511
-0.000519111
-0.000553855
-0.000588674
-0.000623495
-0.00065825
-0.000692866
-0.000727274
-0.000761404
-0.00079519
-0.000828563
-0.000861456
-0.000893805
-0.000925551
-0.000956633
-0.000986984
-0.00101655
-0.00104527
-0.00107309
-0.00109996
-0.00112581
-0.00115061
-0.00117429
-0.0011968
-0.00121809
-0.00123812
-0.00125682
-0.00127414
-0.00129004
-0.00130447
-0.00131737
-0.00132871
-0.00133843
-0.0013465
-0.00135286
-0.00135747
-0.0013603
-0.0013613
-0.00136042
-0.00135764
-0.0013529
-0.00134617
-0.00133741
-0.00132658
-0.00131363
-0.00129853
-0.00128123
-0.0012617
-0.0012399
-0.00121578
-0.00118931
-0.00116046
-0.00112919
-0.00109546
-0.00105923
-0.00102046
-0.000979138
-0.00093521
-0.000888647
-0.000839416
-0.000787487
-0.000732828
-0.000675406
-0.00061519
-0.000552153
-0.000486268
-0.000417505
-0.000345838
-0.000271244
-0.000193702
-0.000113201
-2.97204e-05
5.67562e-05
0.000146235
0.000238721
0.00033422
0.000432739
0.000534273
0.00063881
0.000746338
0.000856842
0.0009703
0.00108668
0.00120596
0.00132809
0.00145302
0.00158071
0.0017111
0.00184414
0.00197974
0.00211782
0.0022583
0.00240107
0.00254603
0.00269304
0.00284199
0.00299275
0.00314516
0.000176959
0.000178046
0.000177049
0.000174039
0.000169276
0.000162811
0.000154659
0.000144858
0.000133451
0.000120476
0.000105983
9.00202e-05
7.26284e-05
5.38569e-05
3.37522e-05
1.23615e-05
-1.02657e-05
-3.4071e-05
-5.89968e-05
-8.49929e-05
-0.000111996
-0.00013994
-0.000168765
-0.000198406
-0.000228797
-0.000259869
-0.000291556
-0.000323793
-0.000356504
-0.000389621
-0.000423076
-0.000456802
-0.000490724
-0.000524776
-0.000558889
-0.000592995
-0.000627026
-0.000660914
-0.000694588
-0.000727983
-0.000761037
-0.000793681
-0.000825848
-0.000857479
-0.000888517
-0.000918895
-0.000948555
-0.000977439
-0.00100549
-0.00103266
-0.00105889
-0.00108412
-0.00110832
-0.00113142
-0.00115336
-0.00117411
-0.00119362
-0.00121182
-0.00122867
-0.00124412
-0.00125812
-0.00127063
-0.00128159
-0.00129096
-0.0012987
-0.00130477
-0.00130912
-0.0013117
-0.00131249
-0.00131144
-0.00130851
-0.00130365
-0.00129683
-0.00128801
-0.00127715
-0.0012642
-0.00124913
-0.0012319
-0.00121246
-0.00119079
-0.00116684
-0.00114057
-0.00111195
-0.00108095
-0.00104752
-0.00101162
-0.000973231
-0.000932314
-0.000888828
-0.000842741
-0.000794024
-0.000742647
-0.000688575
-0.000631776
-0.000572222
-0.000509885
-0.000444739
-0.000376753
-0.000305899
-0.000232156
-0.000155506
-7.59325e-05
6.58363e-06
9.20579e-05
0.000180494
0.000271898
0.000366277
0.000463638
0.000563975
0.000667276
0.000773529
0.000882723
0.000994837
0.00110984
0.0012277
0.00134838
0.00147183
0.001598
0.00172684
0.00185829
0.00199227
0.0021287
0.0022675
0.00240856
0.00255178
0.00269703
0.0028442
0.00299315
0.00314374
0.000210669
0.000210055
0.00020767
0.00020351
0.000197696
0.000190261
0.000181241
0.00017067
0.000158577
0.000145007
0.000130006
0.000113612
9.58686e-05
7.68223e-05
5.65172e-05
3.49946e-05
1.23052e-05
-1.14948e-05
-3.63525e-05
-6.22195e-05
-8.90338e-05
-0.000116735
-0.000145268
-0.00017457
-0.000204577
-0.000235227
-0.000266455
-0.000298194
-0.000330382
-0.000362945
-0.000395823
-0.000428945
-0.000462247
-0.000495663
-0.000529124
-0.000562567
-0.000595924
-0.000629128
-0.000662116
-0.000694821
-0.000727181
-0.000759134
-0.000790616
-0.000821568
-0.00085193
-0.00088164
-0.000910641
-0.000938878
-0.000966295
-0.000992836
-0.00101845
-0.00104309
-0.00106671
-0.00108924
-0.00111065
-0.00113087
-0.00114987
-0.00116759
-0.00118398
-0.00119899
-0.00121258
-0.0012247
-0.0012353
-0.00124433
-0.00125177
-0.00125755
-0.00126164
-0.001264
-0.00126459
-0.00126336
-0.00126028
-0.00125531
-0.00124841
-0.00123953
-0.00122864
-0.0012157
-0.00120067
-0.00118351
-0.00116418
-0.00114263
-0.00111884
-0.00109278
-0.0010644
-0.00103366
-0.00100053
-0.000964974
-0.000926959
-0.000886449
-0.000843405
-0.000797796
-0.000749596
-0.000698772
-0.000645287
-0.000589109
-0.000530214
-0.000468575
-0.000404163
-0.000336947
-0.0002669
-0.000194003
-0.000118238
-3.95842e-05
4.1975e-05
0.000126453
0.000213853
0.000304183
0.000397452
0.000493664
0.000592816
0.000694894
0.000799888
0.000907788
0.00101858
0.00113222
0.00124868
0.00136793
0.00148992
0.00161459
0.0017419
0.00187179
0.00200418
0.00213899
0.00227614
0.00241552
0.00255704
0.00270056
0.00284599
0.00299318
0.00314198
0.000246675
0.000244265
0.000240413
0.000235022
0.000228071
0.000219597
0.000209635
0.000198212
0.000185365
0.000171133
0.00015555
0.000138655
0.00012049
0.000101098
8.05193e-05
5.87976e-05
3.59795e-05
1.21144e-05
-1.27467e-05
-3.85514e-05
-6.52463e-05
-9.2776e-05
-0.000121084
-0.000150113
-0.000179804
-0.000210095
-0.000240927
-0.000272234
-0.000303956
-0.000336028
-0.000368385
-0.000400962
-0.0004337
-0.000466532
-0.000499394
-0.000532223
-0.000564953
-0.00059752
-0.000629866
-0.000661925
-0.000693634
-0.000724935
-0.00075577
-0.000786079
-0.000815799
-0.000844875
-0.000873251
-0.00090087
-0.000927676
-0.000953619
-0.000978653
-0.00100272
-0.00102578
-0.00104777
-0.00106866
-0.00108838
-0.00110689
-0.00112414
-0.00114009
-0.00115468
-0.00116787
-0.00117961
-0.00118986
-0.00119857
-0.00120571
-0.00121122
-0.00121506
-0.0012172
-0.00121759
-0.00121619
-0.00121297
-0.00120789
-0.00120091
-0.00119199
-0.00118108
-0.00116815
-0.00115317
-0.00113608
-0.00111685
-0.00109544
-0.00107182
-0.00104596
-0.00101782
-0.00098735
-0.000954524
-0.000919307
-0.000881666
-0.000841564
-0.000798964
-0.000753837
-0.000706155
-0.000655883
-0.000602983
-0.000547427
-0.00048919
-0.000428245
-0.00036456
-0.000298107
-0.000228862
-0.000156806
-8.19182e-05
-4.17743e-06
7.64307e-05
0.000159917
0.000246288
0.000335553
0.000427722
0.000522797
0.000620774
0.000721642
0.000825394
0.000932019
0.0010415
0.0011538
0.00126888
0.00138672
0.00150727
0.00163047
0.00175628
0.00188462
0.00201545
0.00214867
0.0022842
0.00242194
0.00256178
0.00270363
0.00284735
0.00299281
0.00313987
0.00028482
0.000280555
0.000275162
0.000268463
0.000260306
0.00025072
0.000239743
0.000227404
0.000213737
0.000198769
0.000182537
0.000165079
0.000146426
0.000126619
0.000105701
8.37147e-05
6.06997e-05
3.67026e-05
1.17742e-05
-1.4036e-05
-4.06793e-05
-6.81031e-05
-9.6252e-05
-0.000125074
-0.000154513
-0.00018451
-0.000215004
-0.000245941
-0.000277256
-0.000308892
-0.000340785
-0.000372875
-0.0004051
-0.000437401
-0.000469714
-0.000501977
-0.000534127
-0.000566107
-0.000597854
-0.000629307
-0.000660408
-0.000691099
-0.000721323
-0.000751022
-0.000780137
-0.000808612
-0.000836392
-0.000863421
-0.000889646
-0.000915022
-0.000939499
-0.000963023
-0.000985547
-0.00100702
-0.00102741
-0.00104665
-0.00106469
-0.00108149
-0.001097
-0.00111119
-0.00112399
-0.00113537
-0.00114528
-0.00115369
-0.00116053
-0.00116577
-0.00116938
-0.00117131
-0.00117151
-0.00116996
-0.00116661
-0.00116142
-0.00115437
-0.00114541
-0.00113448
-0.00112157
-0.00110663
-0.00108962
-0.0010705