/*--------------------------------*- C++ -*----------------------------------*\
| =========                 |                                                 |
| \\      /  F ield         | OpenFOAM: The Open Source CFD Toolbox           |
|  \\    /   O peration     | Version:  2112                                  |
|   \\  /    A nd           | Website:  www.openfoam.com                      |
|    \\/     M anipulation  |                                                 |
\*---------------------------------------------------------------------------*/
FoamFile
{
    version     2.0;
    format      ascii;
    arch        "LSB;label=32;scalar=64";
    class       surfaceScalarField;
    location    "5.96";
    object      phi;
}
// * * * * * * * * * * * * * * * * * * * * * * * * * * * * * * * * * * * * * //

dimensions      [0 3 -1 0 0 0 0];

oriented        oriented;

internalField   nonuniform List<scalar> 
132612
(
-2.50921e-11
2.50955e-11
3.96226e-11
-6.46107e-11
2.1388e-10
-1.74342e-10
4.72795e-10
-2.58897e-10
7.93066e-10
-3.2039e-10
1.15332e-09
-3.60238e-10
1.53477e-09
-3.81504e-10
1.92176e-09
-3.86927e-10
2.30096e-09
-3.79193e-10
2.6613e-09
-3.60427e-10
2.99343e-09
-3.32127e-10
3.28931e-09
-2.95947e-10
3.5423e-09
-2.53008e-10
3.74647e-09
-2.04159e-10
3.89699e-09
-1.50453e-10
3.98953e-09
-9.25379e-11
4.02067e-09
-3.11353e-11
3.98722e-09
3.34828e-11
3.88648e-09
1.00737e-10
3.71629e-09
1.70187e-10
3.47483e-09
2.41514e-10
3.1605e-09
3.1433e-10
2.77204e-09
3.88482e-10
2.30834e-09
4.63718e-10
1.76867e-09
5.39682e-10
1.15244e-09
6.16315e-10
4.59188e-10
6.93214e-10
-3.11249e-10
7.70411e-10
-1.15899e-09
8.47795e-10
-2.08407e-09
9.25023e-10
-3.08627e-09
1.00225e-09
-4.16542e-09
1.07912e-09
-5.32111e-09
1.1556e-09
-6.55273e-09
1.23165e-09
-7.85982e-09
1.30704e-09
-9.24171e-09
1.38182e-09
-1.06976e-08
1.45596e-09
-1.22269e-08
1.52928e-09
-1.38287e-08
1.60178e-09
-1.5502e-08
1.6733e-09
-1.72459e-08
1.74393e-09
-1.90595e-08
1.81357e-09
-2.09415e-08
1.88205e-09
-2.28909e-08
1.94943e-09
-2.49066e-08
2.0157e-09
-2.69873e-08
2.08077e-09
-2.91318e-08
2.14457e-09
-3.13389e-08
2.20714e-09
-3.36073e-08
2.26847e-09
-3.59358e-08
2.32848e-09
-3.8323e-08
2.38711e-09
-4.07674e-08
2.44447e-09
-4.32679e-08
2.50051e-09
-4.58229e-08
2.55502e-09
-4.84311e-08
2.60811e-09
-5.1091e-08
2.65989e-09
-5.38012e-08
2.71016e-09
-5.65601e-08
2.75894e-09
-5.93664e-08
2.80632e-09
-6.22186e-08
2.8522e-09
-6.51151e-08
2.8965e-09
-6.80544e-08
2.9393e-09
-7.1035e-08
2.98056e-09
-7.40553e-08
3.02027e-09
-7.71137e-08
3.05845e-09
-8.02087e-08
3.09503e-09
-8.33386e-08
3.1299e-09
-8.65018e-08
3.16323e-09
-8.96968e-08
3.19493e-09
-9.29217e-08
3.22495e-09
-9.61751e-08
3.25332e-09
-9.94552e-08
3.28002e-09
-1.0276e-07
3.30495e-09
-1.06088e-07
3.32818e-09
-1.09438e-07
3.34968e-09
-1.12807e-07
3.36922e-09
-1.16194e-07
3.38712e-09
-1.19597e-07
3.40308e-09
-1.23014e-07
3.41709e-09
-1.26444e-07
3.42925e-09
-1.29883e-07
3.4394e-09
-1.3333e-07
3.44745e-09
-1.36784e-07
3.45344e-09
-1.40241e-07
3.45738e-09
-1.437e-07
3.45906e-09
-1.47159e-07
3.45854e-09
-1.50615e-07
3.45583e-09
-1.54065e-07
3.45072e-09
-1.57509e-07
3.44323e-09
-1.60942e-07
3.43322e-09
-1.64362e-07
3.42059e-09
-1.67768e-07
3.40557e-09
-1.71156e-07
3.3877e-09
-1.74523e-07
3.36695e-09
-1.77866e-07
3.34346e-09
-1.81183e-07
3.31704e-09
-1.84471e-07
3.28752e-09
-1.87725e-07
3.25482e-09
-1.90944e-07
3.21893e-09
-1.94124e-07
3.17971e-09
-1.97261e-07
3.13704e-09
-2.00352e-07
3.09086e-09
-2.03393e-07
3.04096e-09
-2.0638e-07
2.98741e-09
-2.0931e-07
2.93e-09
-2.12179e-07
2.86867e-09
-2.14982e-07
2.80327e-09
-2.17716e-07
2.73361e-09
-2.20376e-07
2.65982e-09
-2.22957e-07
2.58163e-09
-2.25456e-07
2.49896e-09
-2.27868e-07
2.41175e-09
-2.30188e-07
2.31984e-09
-2.32411e-07
2.22323e-09
-2.34533e-07
2.12178e-09
-2.36548e-07
2.01535e-09
-2.38452e-07
1.90403e-09
-2.4024e-07
1.78767e-09
-2.41906e-07
1.66617e-09
-2.43446e-07
1.53965e-09
-2.44854e-07
1.4079e-09
-2.46125e-07
1.27085e-09
-2.47253e-07
1.12859e-09
-2.48234e-07
9.81089e-10
-2.49063e-07
8.2845e-10
-2.49734e-07
6.7076e-10
-2.50241e-07
5.07933e-10
-2.50581e-07
3.40082e-10
1.6716e-10
-2.50749e-07
7.14881e-11
-4.64542e-11
3.46566e-10
-3.39712e-10
8.32329e-10
-6.60006e-10
1.49919e-09
-9.25795e-10
2.30338e-09
-1.12442e-09
3.20011e-09
-1.25706e-09
4.1472e-09
-1.32855e-09
5.10618e-09
-1.34587e-09
6.04305e-09
-1.31611e-09
6.92829e-09
-1.24554e-09
7.7359e-09
-1.1397e-09
8.44355e-09
-1.00356e-09
9.03172e-09
-8.41157e-10
9.48365e-09
-6.56159e-10
9.78465e-09
-4.51525e-10
9.92218e-09
-2.301e-10
9.88519e-09
5.87974e-12
9.66421e-09
2.54424e-10
9.25118e-09
5.1372e-10
8.639e-09
7.82345e-10
7.8218e-09
1.05871e-09
6.79454e-09
1.34158e-09
5.55303e-09
1.62997e-09
4.0939e-09
1.92279e-09
2.41438e-09
2.21928e-09
5.12221e-10
2.5184e-09
-1.61397e-09
2.81946e-09
-3.96544e-09
3.12197e-09
-6.5428e-09
3.42512e-09
-9.34618e-09
3.72847e-09
-1.23755e-08
4.03159e-09
-1.56302e-08
4.33382e-09
-1.91093e-08
4.63485e-09
-2.28119e-08
4.93423e-09
-2.67364e-08
5.23163e-09
-3.08811e-08
5.52667e-09
-3.52443e-08
5.81913e-09
-3.98237e-08
6.10875e-09
-4.4617e-08
6.39513e-09
-4.96217e-08
6.678e-09
-5.48352e-08
6.95734e-09
-6.02545e-08
7.23282e-09
-6.58766e-08
7.50414e-09
-7.16985e-08
7.77124e-09
-7.77168e-08
8.03396e-09
-8.3928e-08
8.29206e-09
-9.0329e-08
8.54541e-09
-9.69159e-08
8.79402e-09
-1.03685e-07
9.03762e-09
-1.10633e-07
9.27614e-09
-1.17755e-07
9.50949e-09
-1.25048e-07
9.73754e-09
-1.32508e-07
9.96022e-09
-1.4013e-07
1.01774e-08
-1.47911e-07
1.03891e-08
-1.55846e-07
1.05951e-08
-1.63931e-07
1.07953e-08
-1.72162e-07
1.09899e-08
-1.80534e-07
1.11786e-08
-1.89044e-07
1.13613e-08
-1.97685e-07
1.15381e-08
-2.06455e-07
1.17088e-08
-2.15347e-07
1.18734e-08
-2.24359e-07
1.20317e-08
-2.33484e-07
1.21839e-08
-2.42719e-07
1.23299e-08
-2.52059e-07
1.24693e-08
-2.61498e-07
1.26024e-08
-2.71032e-07
1.27289e-08
-2.80656e-07
1.28489e-08
-2.90364e-07
1.29621e-08
-3.00153e-07
1.30685e-08
-3.10016e-07
1.31681e-08
-3.19949e-07
1.32608e-08
-3.29945e-07
1.33464e-08
-3.40001e-07
1.34246e-08
-3.50109e-07
1.34957e-08
-3.60265e-07
1.35592e-08
-3.70464e-07
1.36151e-08
-3.80698e-07
1.36632e-08
-3.90962e-07
1.37034e-08
-4.0125e-07
1.37355e-08
-4.11556e-07
1.37593e-08
-4.21873e-07
1.37746e-08
-4.32195e-07
1.37811e-08
-4.42515e-07
1.37787e-08
-4.52827e-07
1.37673e-08
-4.63122e-07
1.37465e-08
-4.73395e-07
1.3716e-08
-4.83638e-07
1.36756e-08
-4.93842e-07
1.36249e-08
-5.04e-07
1.35639e-08
-5.14104e-07
1.3492e-08
-5.24146e-07
1.34088e-08
-5.34117e-07
1.33143e-08
-5.44008e-07
1.32079e-08
-5.5381e-07
1.30894e-08
-5.63513e-07
1.29582e-08
-5.73109e-07
1.28142e-08
-5.82586e-07
1.26569e-08
-5.91935e-07
1.24858e-08
-6.01145e-07
1.23008e-08
-6.10205e-07
1.21011e-08
-6.19104e-07
1.18866e-08
-6.27831e-07
1.16568e-08
-6.36373e-07
1.14112e-08
-6.4472e-07
1.11495e-08
-6.52857e-07
1.08712e-08
-6.60773e-07
1.05761e-08
-6.68455e-07
1.02635e-08
-6.75889e-07
9.93312e-09
-6.83062e-07
9.58473e-09
-6.8996e-07
9.21779e-09
-6.96569e-07
8.83199e-09
-7.02874e-07
8.42704e-09
-7.08861e-07
8.00256e-09
-7.14516e-07
7.55846e-09
-7.19822e-07
7.09431e-09
-7.24766e-07
6.60977e-09
-7.29331e-07
6.10504e-09
-7.33503e-07
5.57981e-09
-7.37266e-07
5.0339e-09
-7.40605e-07
4.46737e-09
-7.43504e-07
3.88016e-09
-7.45948e-07
3.27238e-09
-7.47922e-07
2.64431e-09
-7.4941e-07
1.99602e-09
-7.50398e-07
1.32792e-09
6.40079e-10
-7.5087e-07
1.72755e-10
-2.19263e-10
6.6086e-10
-8.27893e-10
1.42922e-09
-1.42852e-09
2.43255e-09
-1.92904e-09
3.6148e-09
-2.30676e-09
4.91672e-09
-2.55903e-09
6.28073e-09
-2.69261e-09
7.65277e-09
-2.71803e-09
8.98371e-09
-2.64701e-09
1.02291e-08
-2.49096e-09
1.13496e-08
-2.26025e-09
1.23103e-08
-1.96429e-09
1.30806e-08
-1.6114e-09
1.36334e-08
-1.20896e-09
1.39451e-08
-7.63211e-10
1.3995e-08
-2.79929e-10
1.37648e-08
2.36049e-10
1.32388e-08
7.80384e-10
1.24034e-08
1.34921e-09
1.12466e-08
1.93913e-09
9.75829e-09
2.54705e-09
7.92978e-09
3.17013e-09
5.7537e-09
3.80606e-09
3.22406e-09
4.45256e-09
3.35766e-10
5.10753e-09
-2.91511e-09
5.76925e-09
-6.53148e-09
6.43596e-09
-1.05158e-08
7.10615e-09
-1.48692e-08
7.77862e-09
-1.95927e-08
8.45194e-09
-2.46862e-08
9.125e-09
-3.01492e-08
9.79688e-09
-3.59807e-08
1.04663e-08
-4.21791e-08
1.11326e-08
-4.87423e-08
1.17948e-08
-5.56679e-08
1.24523e-08
-6.2953e-08
1.31042e-08
-7.05942e-08
1.375e-08
-7.85881e-08
1.43891e-08
-8.69307e-08
1.50207e-08
-9.56177e-08
1.56444e-08
-1.04645e-07
1.62598e-08
-1.14007e-07
1.68664e-08
-1.23699e-07
1.74637e-08
-1.33717e-07
1.80513e-08
-1.44053e-07
1.86289e-08
-1.54704e-07
1.91961e-08
-1.65663e-07
1.97528e-08
-1.76924e-07
2.02984e-08
-1.88481e-07
2.08329e-08
-2.00327e-07
2.1356e-08
-2.12457e-07
2.18672e-08
-2.24863e-07
2.23666e-08
-2.3754e-07
2.2854e-08
-2.5048e-07
2.33289e-08
-2.63676e-07
2.37912e-08
-2.77121e-07
2.42409e-08
-2.90809e-07
2.46776e-08
-3.04732e-07
2.51013e-08
-3.18882e-07
2.55118e-08
-3.33253e-07
2.59089e-08
-3.47837e-07
2.62925e-08
-3.62626e-07
2.66624e-08
-3.77612e-07
2.70183e-08
-3.92789e-07
2.73604e-08
-4.08147e-07
2.76884e-08
-4.2368e-07
2.8002e-08
-4.39379e-07
2.83011e-08
-4.55236e-07
2.85856e-08
-4.71242e-07
2.88553e-08
-4.8739e-07
2.91099e-08
-5.0367e-07
2.93493e-08
-5.20076e-07
2.95732e-08
-5.36596e-07
2.97814e-08
-5.53224e-07
2.99737e-08
-5.69949e-07
3.01497e-08
-5.86762e-07
3.03091e-08
-6.03655e-07
3.04518e-08
-6.20617e-07
3.05772e-08
-6.37638e-07
3.0685e-08
-6.5471e-07
3.0775e-08
-6.71821e-07
3.08466e-08
-6.88961e-07
3.08996e-08
-7.0612e-07
3.09334e-08
-7.23287e-07
3.09476e-08
-7.4045e-07
3.09416e-08
-7.57597e-07
3.09151e-08
-7.74718e-07
3.08674e-08
-7.918e-07
3.07979e-08
-8.08831e-07
3.07062e-08
-8.25797e-07
3.05913e-08
-8.42686e-07
3.04529e-08
-8.59484e-07
3.02901e-08
-8.76178e-07
3.0102e-08
-8.92751e-07
2.98883e-08
-9.09191e-07
2.96479e-08
-9.25482e-07
2.93799e-08
-9.41608e-07
2.90838e-08
-9.57552e-07
2.87588e-08
-9.73299e-07
2.84037e-08
-9.88831e-07
2.80178e-08
-1.00413e-06
2.76004e-08
-1.01918e-06
2.71502e-08
-1.03396e-06
2.66666e-08
-1.04845e-06
2.61486e-08
-1.06264e-06
2.55953e-08
-1.07649e-06
2.50058e-08
-1.09e-06
2.4379e-08
-1.10314e-06
2.37144e-08
-1.11589e-06
2.30107e-08
-1.12822e-06
2.22672e-08
-1.14012e-06
2.14832e-08
-1.15156e-06
2.06576e-08
-1.16252e-06
1.97899e-08
-1.17297e-06
1.88792e-08
-1.18289e-06
1.79249e-08
-1.19226e-06
1.69264e-08
-1.20105e-06
1.58833e-08
-1.20923e-06
1.47948e-08
-1.21679e-06
1.36607e-08
-1.22369e-06
1.24807e-08
-1.22991e-06
1.12546e-08
-1.23542e-06
9.9826e-09
-1.24021e-06
8.6644e-09
-1.24424e-06
7.30018e-09
-1.24748e-06
5.89048e-09
-1.24992e-06
4.43563e-09
-1.25153e-06
2.93637e-09
1.39319e-09
-1.25228e-06
2.5768e-10
-4.76926e-10
9.24736e-10
-1.49486e-09
1.92776e-09
-2.43157e-09
3.19963e-09
-3.20098e-09
4.67008e-09
-3.77711e-09
6.2684e-09
-4.15725e-09
7.92554e-09
-4.34978e-09
9.57626e-09
-4.36869e-09
1.11598e-08
-4.23048e-09
1.26206e-08
-3.95172e-09
1.39084e-08
-3.54807e-09
1.4978e-08
-3.03386e-09
1.5789e-08
-2.42247e-09
1.63055e-08
-1.72548e-09
1.64957e-08
-9.53329e-10
1.63312e-08
-1.15409e-10
1.57871e-08
7.80123e-10
1.48416e-08
1.72581e-09
1.34757e-08
2.71521e-09
1.16724e-08
3.74237e-09
9.41751e-09
4.80192e-09
6.69841e-09
5.88917e-09
3.50477e-09
6.9998e-09
-1.7249e-10
8.12983e-09
-4.34083e-09
9.27584e-09
-9.00611e-09
1.04346e-08
-1.41731e-08
1.1603e-08
-1.98455e-08
1.27785e-08
-2.60255e-08
1.39587e-08
-3.27147e-08
1.51411e-08
-3.99136e-08
1.63239e-08
-4.76219e-08
1.75052e-08
-5.58387e-08
1.86831e-08
-6.45621e-08
1.9856e-08
-7.37897e-08
2.10224e-08
-8.35184e-08
2.21809e-08
-9.37445e-08
2.33303e-08
-1.04464e-07
2.44693e-08
-1.15672e-07
2.55969e-08
-1.27363e-07
2.67119e-08
-1.39532e-07
2.78135e-08
-1.52173e-07
2.89006e-08
-1.65279e-07
2.99727e-08
-1.78844e-07
3.10287e-08
-1.92861e-07
3.2068e-08
-2.07322e-07
3.30899e-08
-2.2222e-07
3.40939e-08
-2.37546e-07
3.50793e-08
-2.53293e-07
3.60456e-08
-2.69453e-07
3.69924e-08
-2.86016e-07
3.79192e-08
-3.02974e-07
3.88253e-08
-3.20318e-07
3.97106e-08
-3.38039e-07
4.05746e-08
-3.56127e-07
4.14169e-08
-3.74573e-07
4.22371e-08
-3.93367e-07
4.3035e-08
-4.12499e-07
4.38101e-08
-4.3196e-07
4.45621e-08
-4.51739e-07
4.52908e-08
-4.71826e-07
4.59958e-08
-4.9221e-07
4.66769e-08
-5.12882e-07
4.73339e-08
-5.3383e-07
4.79662e-08
-5.55043e-07
4.85739e-08
-5.76511e-07
4.91565e-08
-5.98223e-07
4.97137e-08
-6.20167e-07
5.02452e-08
-6.42332e-07
5.07507e-08
-6.64707e-07
5.12299e-08
-6.87279e-07
5.16823e-08
-7.10037e-07
5.21077e-08
-7.3297e-07
5.25054e-08
-7.56063e-07
5.28752e-08
-7.79306e-07
5.32167e-08
-8.02686e-07
5.35291e-08
-8.26189e-07
5.38121e-08
-8.49802e-07
5.40652e-08
-8.73513e-07
5.42876e-08
-8.97306e-07
5.44787e-08
-9.21169e-07
5.46379e-08
-9.45087e-07
5.47645e-08
-9.69045e-07
5.48578e-08
-9.93029e-07
5.49169e-08
-1.01702e-06
5.49411e-08
-1.04101e-06
5.49294e-08
-1.06498e-06
5.4881e-08
-1.0889e-06
5.47948e-08
-1.11278e-06
5.46698e-08
-1.13657e-06
5.45052e-08
-1.16028e-06
5.42994e-08
-1.18388e-06
5.40516e-08
-1.20735e-06
5.37603e-08
-1.23067e-06
5.34243e-08
-1.25383e-06
5.30424e-08
-1.27679e-06
5.26131e-08
-1.29955e-06
5.21349e-08
-1.32207e-06
5.16066e-08
-1.34434e-06
5.10266e-08
-1.36633e-06
5.03935e-08
-1.38802e-06
4.97055e-08
-1.40938e-06
4.89614e-08
-1.43039e-06
4.81593e-08
-1.45102e-06
4.72978e-08
-1.47124e-06
4.63752e-08
-1.49104e-06
4.53898e-08
-1.51037e-06
4.43402e-08
-1.52922e-06
4.32247e-08
-1.54755e-06
4.20418e-08
-1.56533e-06
4.07899e-08
-1.58253e-06
3.94672e-08
-1.59911e-06
3.80728e-08
-1.61506e-06
3.66049e-08
-1.63033e-06
3.50621e-08
-1.6449e-06
3.34433e-08
-1.65872e-06
3.17473e-08
-1.67177e-06
2.99731e-08
-1.684e-06
2.81198e-08
-1.6954e-06
2.61862e-08
-1.70591e-06
2.41722e-08
-1.7155e-06
2.20769e-08
-1.72415e-06
1.99002e-08
-1.73181e-06
1.7642e-08
-1.73845e-06
1.53024e-08
-1.74403e-06
1.28816e-08
-1.74852e-06
1.03803e-08
-1.75188e-06
7.79916e-09
-1.75408e-06
5.1394e-09
2.40225e-09
-1.75509e-06
3.1908e-10
-7.96064e-10
1.12326e-09
-2.2989e-09
2.30523e-09
-3.61363e-09
3.77576e-09
-4.6715e-09
5.45019e-09
-5.45152e-09
7.24677e-09
-5.95389e-09
9.08727e-09
-6.19024e-09
1.08974e-08
-6.17885e-09
1.26077e-08
-5.94075e-09
1.41537e-08
-5.49776e-09
1.54766e-08
-4.87085e-09
1.65225e-08
-4.07988e-09
1.72431e-08
-3.14303e-09
1.75945e-08
-2.07691e-09
1.75378e-08
-8.9653e-10
1.70376e-08
3.84684e-10
1.60632e-08
1.75452e-09
1.45868e-08
3.20224e-09
1.25841e-08
4.7179e-09
1.00339e-08
6.29264e-09
6.91725e-09
7.9185e-09
3.2182e-09
9.58823e-09
-1.07719e-09
1.12952e-08
-5.98082e-09
1.30334e-08
-1.15024e-08
1.47975e-08
-1.76503e-08
1.65824e-08
-2.4431e-08
1.83837e-08
-3.18496e-08
2.01971e-08
-3.99097e-08
2.20187e-08
-4.86137e-08
2.38451e-08
-5.79629e-08
2.56732e-08
-6.79574e-08
2.74997e-08
-7.85963e-08
2.9322e-08
-8.98779e-08
3.11376e-08
-1.01799e-07
3.2944e-08
-1.14357e-07
3.4739e-08
-1.27548e-07
3.65206e-08
-1.41365e-07
3.82869e-08
-1.55805e-07
4.00361e-08
-1.70859e-07
4.17667e-08
-1.86523e-07
4.34769e-08
-2.02787e-07
4.51655e-08
-2.19646e-07
4.68311e-08
-2.37089e-07
4.84724e-08
-2.5511e-07
5.00882e-08
-2.73697e-07
5.16776e-08
-2.92843e-07
5.32395e-08
-3.12537e-07
5.4773e-08
-3.32768e-07
5.62772e-08
-3.53527e-07
5.77513e-08
-3.74803e-07
5.91947e-08
-3.96584e-07
6.06063e-08
-4.18859e-07
6.19858e-08
-4.41617e-07
6.33324e-08
-4.64845e-07
6.46454e-08
-4.88532e-07
6.59243e-08
-5.12666e-07
6.71685e-08
-5.37233e-07
6.83775e-08
-5.62222e-07
6.95507e-08
-5.87619e-07
7.06877e-08
-6.13411e-07
7.17879e-08
-6.39585e-07
7.2851e-08
-6.66128e-07
7.38764e-08
-6.93025e-07
7.48637e-08
-7.20264e-07
7.58124e-08
-7.4783e-07
7.67222e-08
-7.75708e-07
7.75922e-08
-8.03885e-07
7.84222e-08
-8.32346e-07
7.92116e-08
-8.61076e-07
7.99599e-08
-8.9006e-07
8.06664e-08
-9.19283e-07
8.13305e-08
-9.48729e-07
8.19516e-08
-9.78383e-07
8.25289e-08
-1.00823e-06
8.30619e-08
-1.03825e-06
8.35494e-08
-1.06843e-06
8.39909e-08
-1.09875e-06
8.43854e-08
-1.12919e-06
8.47319e-08
-1.15974e-06
8.50295e-08
-1.19038e-06
8.52772e-08
-1.22109e-06
8.54739e-08
-1.25185e-06
8.56182e-08
-1.28264e-06
8.57091e-08
-1.31345e-06
8.57453e-08
-1.34424e-06
8.57253e-08
-1.37501e-06
8.56478e-08
-1.40573e-06
8.55111e-08
-1.43637e-06
8.53136e-08
-1.46692e-06
8.5054e-08
-1.49735e-06
8.47301e-08
-1.52764e-06
8.43401e-08
-1.55776e-06
8.38823e-08
-1.58769e-06
8.33545e-08
-1.6174e-06
8.27549e-08
-1.64687e-06
8.20811e-08
-1.67607e-06
8.1331e-08
-1.70496e-06
8.05024e-08
-1.73353e-06
7.95931e-08
-1.76174e-06
7.86008e-08
-1.78955e-06
7.75227e-08
-1.81695e-06
7.6357e-08
-1.84389e-06
7.51007e-08
-1.87035e-06
7.37516e-08
-1.89628e-06
7.23072e-08
-1.92165e-06
7.07649e-08
-1.94643e-06
6.91225e-08
-1.97059e-06
6.73772e-08
-1.99407e-06
6.55268e-08
-2.01685e-06
6.35688e-08
-2.03888e-06
6.15008e-08
-2.06013e-06
5.93206e-08
-2.08055e-06
5.70261e-08
-2.10011e-06
5.46151e-08
-2.11875e-06
5.20857e-08
-2.13644e-06
4.94361e-08
-2.15313e-06
4.66646e-08
-2.16878e-06
4.37702e-08
-2.18334e-06
4.07511e-08
-2.19678e-06
3.76066e-08
-2.20904e-06
3.4336e-08
-2.22008e-06
3.09387e-08
-2.22985e-06
2.74148e-08
-2.23831e-06
2.37642e-08
-2.24542e-06
1.99876e-08
-2.25112e-06
1.60859e-08
-2.25538e-06
1.20602e-08
-2.25816e-06
7.91223e-09
3.64411e-09
-2.2594e-06
3.59359e-10
-1.15544e-09
1.25653e-09
-3.1961e-09
2.55918e-09
-4.91624e-09
4.15832e-09
-6.27068e-09
5.95569e-09
-7.24891e-09
7.85938e-09
-7.85754e-09
9.78282e-09
-8.11362e-09
1.16441e-08
-8.0402e-09
1.33668e-08
-7.66345e-09
1.48795e-08
-7.01033e-09
1.6116e-08
-6.10736e-09
1.70158e-08
-4.97968e-09
1.75235e-08
-3.65076e-09
1.75889e-08
-2.14224e-09
1.71663e-08
-4.73942e-10
1.62148e-08
1.33615e-09
1.46977e-08
3.27166e-09
1.25821e-08
5.31779e-09
9.839e-09
7.46107e-09
6.4424e-09
9.6892e-09
2.36978e-09
1.19912e-08
-2.39877e-09
1.43568e-08
-7.88048e-09
1.67769e-08
-1.409e-08
1.9243e-08
-2.10399e-08
2.17474e-08
-2.87406e-08
2.42831e-08
-3.72003e-08
2.68435e-08
-4.6426e-08
2.94227e-08
-5.64227e-08
3.20153e-08
-6.71937e-08
3.46162e-08
-7.87413e-08
3.72207e-08
-9.1066e-08
3.98244e-08
-1.04168e-07
4.24235e-08
-1.18044e-07
4.50141e-08
-1.32693e-07
4.75928e-08
-1.4811e-07
5.01565e-08
-1.64292e-07
5.2702e-08
-1.81232e-07
5.52267e-08
-1.98923e-07
5.7728e-08
-2.1736e-07
6.02035e-08
-2.36534e-07
6.26509e-08
-2.56437e-07
6.50681e-08
-2.77059e-07
6.74532e-08
-2.98391e-07
6.98043e-08
-3.20422e-07
7.21197e-08
-3.43143e-07
7.43979e-08
-3.66541e-07
7.66373e-08
-3.90604e-07
7.88367e-08
-4.15322e-07
8.09946e-08
-4.4068e-07
8.31099e-08
-4.66667e-07
8.51815e-08
-4.93269e-07
8.72083e-08
-5.20472e-07
8.91891e-08
-5.48263e-07
9.11232e-08
-5.76627e-07
9.30095e-08
-6.0555e-07
9.48471e-08
-6.35017e-07
9.66353e-08
-6.65013e-07
9.83731e-08
-6.95522e-07
1.0006e-07
-7.26529e-07
1.01695e-07
-7.58018e-07
1.03277e-07
-7.89972e-07
1.04806e-07
-8.22377e-07
1.06281e-07
-8.55215e-07
1.07701e-07
-8.88468e-07
1.09066e-07
-9.22121e-07
1.10375e-07
-9.56156e-07
1.11627e-07
-9.90556e-07
1.12822e-07
-1.0253e-06
1.13958e-07
-1.06038e-06
1.15034e-07
-1.09576e-06
1.16051e-07
-1.13144e-06
1.17007e-07
-1.16739e-06
1.179e-07
-1.20359e-06
1.18731e-07
-1.24002e-06
1.19497e-07
-1.27667e-06
1.20198e-07
-1.31351e-06
1.20833e-07
-1.35053e-06
1.214e-07
-1.38769e-06
1.21897e-07
-1.42499e-06
1.22324e-07
-1.46239e-06
1.22679e-07
-1.49988e-06
1.22961e-07
-1.53743e-06
1.23167e-07
-1.57501e-06
1.23295e-07
-1.61261e-06
1.23345e-07
-1.6502e-06
1.23314e-07
-1.68775e-06
1.23199e-07
-1.72524e-06
1.23e-07
-1.76264e-06
1.22712e-07
-1.79992e-06
1.22335e-07
-1.83705e-06
1.21865e-07
-1.87401e-06
1.213e-07
-1.91077e-06
1.20637e-07
-1.94729e-06
1.19873e-07
-1.98354e-06
1.19005e-07
-2.01949e-06
1.1803e-07
-2.0551e-06
1.16946e-07
-2.09035e-06
1.15749e-07
-2.12519e-06
1.14435e-07
-2.15959e-06
1.13001e-07
-2.19351e-06
1.11445e-07
-2.22691e-06
1.09761e-07
-2.25976e-06
1.07948e-07
-2.29201e-06
1.06001e-07
-2.32362e-06
1.03917e-07
-2.35455e-06
1.01692e-07
-2.38475e-06
9.93235e-08
-2.41418e-06
9.68069e-08
-2.44279e-06
9.41391e-08
-2.47054e-06
9.13168e-08
-2.49738e-06
8.83365e-08
-2.52325e-06
8.51951e-08
-2.54811e-06
8.18895e-08
-2.57192e-06
7.84167e-08
-2.5946e-06
7.47741e-08
-2.61613e-06
7.09589e-08
-2.63643e-06
6.6969e-08
-2.65546e-06
6.28025e-08
-2.67317e-06
5.84574e-08
-2.6895e-06
5.39326e-08
-2.70439e-06
4.92269e-08
-2.71779e-06
4.43399e-08
-2.72964e-06
3.92713e-08
-2.7399e-06
3.40213e-08
-2.7485e-06
2.85907e-08
-2.7554e-06
2.2981e-08
-2.76053e-06
1.71937e-08
-2.76385e-06
1.12313e-08
5.0968e-09
-2.7653e-06
3.81199e-10
-1.5367e-09
1.32964e-09
-4.14455e-09
2.6959e-09
-6.28243e-09
4.35562e-09
-7.93039e-09
6.19855e-09
-9.09181e-09
8.12355e-09
-9.78254e-09
1.00365e-08
-1.00265e-08
1.18492e-08
-9.85292e-09
1.3479e-08
-9.29327e-09
1.48487e-08
-8.38006e-09
1.58866e-08
-7.14523e-09
1.65262e-08
-5.6193e-09
1.67066e-08
-3.83105e-09
1.63716e-08
-1.80733e-09
1.54705e-08
4.27165e-10
1.39569e-08
2.8497e-09
1.17892e-08
5.43948e-09
8.9296e-09
8.17738e-09
5.34456e-09
1.1046e-08
1.00428e-09
1.40295e-08
-4.11781e-09
1.71133e-08
-1.00451e-08
2.0284e-08
-1.67978e-08
2.35297e-08
-2.43938e-08
2.68389e-08
-3.28479e-08
3.02015e-08
-4.21729e-08
3.36081e-08
-5.23792e-08
3.70498e-08
-6.34752e-08
4.05187e-08
-7.54674e-08
4.40075e-08
-8.83605e-08
4.75093e-08
-1.02157e-07
5.10176e-08
-1.1686e-07
5.45268e-08
-1.32468e-07
5.80312e-08
-1.48979e-07
6.15258e-08
-1.66392e-07
6.50059e-08
-1.84703e-07
6.8467e-08
-2.03906e-07
7.19052e-08
-2.23996e-07
7.53165e-08
-2.44965e-07
7.86975e-08
-2.66806e-07
8.20447e-08
-2.89511e-07
8.53553e-08
-3.13069e-07
8.86261e-08
-3.3747e-07
9.18544e-08
-3.62704e-07
9.50378e-08
-3.88758e-07
9.81739e-08
-4.1562e-07
1.0126e-07
-4.43278e-07
1.04295e-07
-4.71718e-07
1.07277e-07
-5.00926e-07
1.10203e-07
-5.30888e-07
1.13072e-07
-5.61588e-07
1.15882e-07
-5.93012e-07
1.18632e-07
-6.25144e-07
1.21321e-07
-6.57967e-07
1.23946e-07
-6.91464e-07
1.26507e-07
-7.2562e-07
1.29003e-07
-7.60416e-07
1.31432e-07
-7.95836e-07
1.33793e-07
-8.31861e-07
1.36084e-07
-8.68472e-07
1.38306e-07
-9.05652e-07
1.40457e-07
-9.43381e-07
1.42535e-07
-9.81641e-07
1.4454e-07
-1.02041e-06
1.46472e-07
-1.05967e-06
1.48328e-07
-1.0994e-06
1.50108e-07
-1.13959e-06
1.5181e-07
-1.1802e-06
1.53435e-07
-1.22122e-06
1.5498e-07
-1.26263e-06
1.56444e-07
-1.30441e-06
1.57826e-07
-1.34653e-06
1.59126e-07
-1.38897e-06
1.60341e-07
-1.43171e-06
1.6147e-07
-1.47472e-06
1.62512e-07
-1.51799e-06
1.63465e-07
-1.56148e-06
1.64327e-07
-1.60518e-06
1.65097e-07
-1.64906e-06
1.65772e-07
-1.69308e-06
1.66351e-07
-1.73724e-06
1.66832e-07
-1.78149e-06
1.67213e-07
-1.82581e-06
1.6749e-07
-1.87018e-06
1.67662e-07
-1.91456e-06
1.67727e-07
-1.95893e-06
1.67681e-07
-2.00325e-06
1.67521e-07
-2.04749e-06
1.67245e-07
-2.09163e-06
1.6685e-07
-2.13563e-06
1.66332e-07
-2.17945e-06
1.65687e-07
-2.22306e-06
1.64913e-07
-2.26643e-06
1.64005e-07
-2.30952e-06
1.6296e-07
-2.35229e-06
1.61773e-07
-2.3947e-06
1.60441e-07
-2.43671e-06
1.58959e-07
-2.47829e-06
1.57323e-07
-2.51938e-06
1.55529e-07
-2.55995e-06
1.53572e-07
-2.59995e-06
1.51447e-07
-2.63934e-06
1.4915e-07
-2.67807e-06
1.46676e-07
-2.71609e-06
1.4402e-07
-2.75335e-06
1.41178e-07
-2.7898e-06
1.38145e-07
-2.82539e-06
1.34915e-07
-2.86007e-06
1.31485e-07
-2.89378e-06
1.2785e-07
-2.92647e-06
1.24005e-07
-2.95808e-06
1.19945e-07
-2.98855e-06
1.15666e-07
-3.01783e-06
1.11165e-07
-3.04585e-06
1.06437e-07
-3.07255e-06
1.01478e-07
-3.09788e-06
9.62851e-08
-3.12176e-06
9.08554e-08
-3.14415e-06
8.51862e-08
-3.16496e-06
7.9275e-08
-3.18415e-06
7.31202e-08
-3.20164e-06
6.67204e-08
-3.21738e-06
6.00749e-08
-3.23129e-06
5.31834e-08
-3.24332e-06
4.60462e-08
-3.25339e-06
3.86646e-08
-3.26145e-06
3.10403e-08
-3.26743e-06
2.31758e-08
-3.27128e-06
1.50741e-08
6.73965e-09
-3.27292e-06
3.87466e-10
-1.92409e-09
1.34948e-09
-5.10655e-09
2.7259e-09
-7.65894e-09
4.38162e-09
-9.58612e-09
6.19666e-09
-1.09068e-08
8.06197e-09
-1.16479e-08
9.87705e-09
-1.18415e-08
1.15479e-08
-1.15237e-08
1.29869e-08
-1.07322e-08
1.41118e-08
-9.50504e-09
1.48462e-08
-7.87962e-09
1.51189e-08
-5.89196e-09
1.48641e-08
-3.57619e-09
1.4021e-08
-9.6423e-10
1.2534e-08
1.91414e-09
1.03523e-08
5.03134e-09
7.42984e-09
8.36199e-09
3.72469e-09
1.18825e-08
-8.00825e-10
1.55715e-08
-6.18032e-09
1.94091e-08
-1.2444e-08
2.33769e-08
-1.96184e-08
2.74585e-08
-2.7727e-08
3.16382e-08
-3.67901e-08
3.5902e-08
-4.68253e-08
4.02368e-08
-5.78476e-08
4.46303e-08
-6.98694e-08
4.90715e-08
-8.29008e-08
5.35502e-08
-9.69499e-08
5.80565e-08
-1.12022e-07
6.25819e-08
-1.28123e-07
6.71179e-08
-1.45253e-07
7.16569e-08
-1.63413e-07
7.61918e-08
-1.82604e-07
8.0716e-08
-2.02821e-07
8.52232e-08
-2.24062e-07
8.97076e-08
-2.4632e-07
9.41641e-08
-2.69591e-07
9.85875e-08
-2.93867e-07
1.02973e-07
-3.19139e-07
1.07316e-07
-3.45397e-07
1.11613e-07
-3.72631e-07
1.1586e-07
-4.0083e-07
1.20054e-07
-4.29982e-07
1.2419e-07
-4.60074e-07
1.28265e-07
-4.91092e-07
1.32278e-07
-5.23021e-07
1.36225e-07
-5.55847e-07
1.40103e-07
-5.89554e-07
1.4391e-07
-6.24125e-07
1.47643e-07
-6.59544e-07
1.51301e-07
-6.95794e-07
1.54882e-07
-7.32857e-07
1.58383e-07
-7.70714e-07
1.61803e-07
-8.09346e-07
1.6514e-07
-8.48735e-07
1.68392e-07
-8.8886e-07
1.71557e-07
-9.29702e-07
1.74634e-07
-9.7124e-07
1.77622e-07
-1.01345e-06
1.80519e-07
-1.05632e-06
1.83324e-07
-1.09982e-06
1.86035e-07
-1.14393e-06
1.8865e-07
-1.18863e-06
1.9117e-07
-1.23389e-06
1.93591e-07
-1.2797e-06
1.95914e-07
-1.32602e-06
1.98135e-07
-1.37284e-06
2.00255e-07
-1.42013e-06
2.02271e-07
-1.46787e-06
2.04181e-07
-1.51603e-06
2.05985e-07
-1.56458e-06
2.07681e-07
-1.61351e-06
2.09266e-07
-1.66278e-06
2.10739e-07
-1.71236e-06
2.12098e-07
-1.76224e-06
2.1334e-07
-1.81238e-06
2.14464e-07
-1.86275e-06
2.15467e-07
-1.91332e-06
2.16346e-07
-1.96407e-06
2.171e-07
-2.01496e-06
2.17725e-07
-2.06597e-06
2.18218e-07
-2.11705e-06
2.18577e-07
-2.16819e-06
2.18798e-07
-2.21934e-06
2.18878e-07
-2.27047e-06
2.18813e-07
-2.32155e-06
2.18599e-07
-2.37254e-06
2.18234e-07
-2.4234e-06
2.17712e-07
-2.4741e-06
2.17029e-07
-2.52459e-06
2.16181e-07
-2.57484e-06
2.15163e-07
-2.62481e-06
2.1397e-07
-2.67445e-06
2.12598e-07
-2.72372e-06
2.11041e-07
-2.77257e-06
2.09294e-07
-2.82096e-06
2.07351e-07
-2.86884e-06
2.05206e-07
-2.91617e-06
2.02855e-07
-2.96289e-06
2.00291e-07
-3.00895e-06
1.97508e-07
-3.0543e-06
1.945e-07
-3.09888e-06
1.91261e-07
-3.14265e-06
1.87785e-07
-3.18554e-06
1.84066e-07
-3.22749e-06
1.80097e-07
-3.26845e-06
1.75872e-07
-3.30835e-06
1.71386e-07
-3.34713e-06
1.66632e-07
-3.38473e-06
1.61605e-07
-3.42108e-06
1.56298e-07
-3.45612e-06
1.50706e-07
-3.48978e-06
1.44823e-07
-3.52199e-06
1.38645e-07
-3.55268e-06
1.32168e-07
-3.58178e-06
1.25385e-07
-3.60922e-06
1.18295e-07
-3.63492e-06
1.10892e-07
-3.65882e-06
1.03175e-07
-3.68084e-06
9.5141e-08
-3.70091e-06
8.67885e-08
-3.71895e-06
7.81164e-08
-3.7349e-06
6.91245e-08
-3.74866e-06
5.98133e-08
-3.76018e-06
5.01844e-08
-3.76938e-06
4.02402e-08
-3.77619e-06
2.9984e-08
-3.78054e-06
1.94198e-08
8.55325e-09
-3.78235e-06
3.80704e-10
-2.30482e-09
1.32253e-09
-6.04838e-09
2.66053e-09
-8.99688e-09
4.25223e-09
-1.11777e-08
5.97053e-09
-1.26251e-08
7.70022e-09
-1.33776e-08
9.33527e-09
-1.34766e-08
1.0777e-08
-1.29654e-08
1.19333e-08
-1.18885e-08
1.2718e-08
-1.02897e-08
1.30506e-08
-8.21216e-09
1.28559e-08
-5.69721e-09
1.2064e-08
-2.7843e-09
1.06103e-08
4.89409e-10
8.43527e-09
4.08919e-09
5.4841e-09
7.98256e-09
1.70668e-09
1.21393e-08
-2.94245e-09
1.65316e-08
-8.50455e-09
2.11336e-08
-1.50169e-08
2.59213e-08
-2.25128e-08
3.08728e-08
-3.10219e-08
3.59676e-08
-4.05706e-08
4.11869e-08
-5.11818e-08
4.65133e-08
-6.28756e-08
5.19305e-08
-7.56691e-08
5.74237e-08
-8.95766e-08
6.29791e-08
-1.0461e-07
6.85837e-08
-1.20779e-07
7.42255e-08
-1.38091e-07
7.98936e-08
-1.5655e-07
8.55775e-08
-1.76161e-07
9.12675e-08
-1.96924e-07
9.69548e-08
-2.18839e-07
1.02631e-07
-2.41904e-07
1.08288e-07
-2.66115e-07
1.13919e-07
-2.91467e-07
1.19516e-07
-3.17953e-07
1.25074e-07
-3.45567e-07
1.30586e-07
-3.74298e-07
1.36048e-07
-4.04137e-07
1.41452e-07
-4.35072e-07
1.46796e-07
-4.67091e-07
1.52073e-07
-5.00182e-07
1.5728e-07
-5.34329e-07
1.62413e-07
-5.69518e-07
1.67467e-07
-6.05733e-07
1.7244e-07
-6.42958e-07
1.77327e-07
-6.81175e-07
1.82126e-07
-7.20366e-07
1.86834e-07
-7.60513e-07
1.91448e-07
-8.01596e-07
1.95965e-07
-8.43596e-07
2.00383e-07
-8.86492e-07
2.04699e-07
-9.30262e-07
2.0891e-07
-9.74887e-07
2.13016e-07
-1.02034e-06
2.17013e-07
-1.06661e-06
2.209e-07
-1.11366e-06
2.24674e-07
-1.16147e-06
2.28334e-07
-1.21003e-06
2.31877e-07
-1.2593e-06
2.35303e-07
-1.30925e-06
2.38609e-07
-1.35988e-06
2.41793e-07
-1.41114e-06
2.44854e-07
-1.46302e-06
2.47789e-07
-1.51548e-06
2.50598e-07
-1.5685e-06
2.53277e-07
-1.62206e-06
2.55826e-07
-1.67612e-06
2.58242e-07
-1.73065e-06
2.60522e-07
-1.78564e-06
2.62665e-07
-1.84104e-06
2.64669e-07
-1.89683e-06
2.6653e-07
-1.95298e-06
2.68247e-07
-2.00946e-06
2.69817e-07
-2.06623e-06
2.71236e-07
-2.12326e-06
2.72502e-07
-2.18053e-06
2.73611e-07
-2.23799e-06
2.74561e-07
-2.29561e-06
2.75348e-07
-2.35336e-06
2.75968e-07
-2.4112e-06
2.76417e-07
-2.4691e-06
2.76691e-07
-2.527e-06
2.76787e-07
-2.58489e-06
2.76699e-07
-2.64271e-06
2.76422e-07
-2.70043e-06
2.75953e-07
-2.75801e-06
2.75285e-07
-2.81539e-06
2.74413e-07
-2.87254e-06
2.73332e-07
-2.92941e-06
2.72035e-07
-2.98596e-06
2.70518e-07
-3.04213e-06
2.68772e-07
-3.09789e-06
2.66792e-07
-3.15316e-06
2.64571e-07
-3.20791e-06
2.62103e-07
-3.26209e-06
2.59379e-07
-3.31563e-06
2.56393e-07
-3.36847e-06
2.53138e-07
-3.42057e-06
2.49606e-07
-3.47186e-06
2.4579e-07
-3.52228e-06
2.41681e-07
-3.57177e-06
2.37272e-07
-3.62026e-06
2.32556e-07
-3.66769e-06
2.27524e-07
-3.71398e-06
2.22169e-07
-3.75908e-06
2.16484e-07
-3.80291e-06
2.1046e-07
-3.84539e-06
2.04091e-07
-3.88647e-06
1.97368e-07
-3.92605e-06
1.90286e-07
-3.96406e-06
1.82838e-07
-4.00043e-06
1.75016e-07
-4.03508e-06
1.66816e-07
-4.06793e-06
1.58232e-07
-4.09889e-06
1.49259e-07
-4.12789e-06
1.39893e-07
-4.15485e-06
1.30131e-07
-4.17968e-06
1.19968e-07
-4.20229e-06
1.09405e-07
-4.22261e-06
9.84386e-08
-4.24056e-06
8.70695e-08
-4.25604e-06
7.52984e-08
-4.26899e-06
6.31271e-08
-4.27931e-06
5.05587e-08
-4.28692e-06
3.75975e-08
-4.29175e-06
2.42488e-08
1.05195e-08
-4.29371e-06
3.62857e-10
-2.66769e-09
1.25535e-09
-6.94084e-09
2.51097e-09
-1.02525e-08
3.98338e-09
-1.26502e-08
5.54108e-09
-1.41828e-08
7.06415e-09
-1.49007e-08
8.44222e-09
-1.48547e-08
9.57287e-09
-1.40961e-08
1.03603e-08
-1.2676e-08
1.0715e-08
-1.06444e-08
1.0553e-08
-8.05017e-09
9.7959e-09
-4.94013e-09
8.37057e-09
-1.359e-09
6.20902e-09
2.65096e-09
3.24828e-09
7.04994e-09