/*--------------------------------*- C++ -*----------------------------------*\
| =========                 |                                                 |
| \\      /  F ield         | OpenFOAM: The Open Source CFD Toolbox           |
|  \\    /   O peration     | Version:  2112                                  |
|   \\  /    A nd           | Website:  www.openfoam.com                      |
|    \\/     M anipulation  |                                                 |
\*---------------------------------------------------------------------------*/
FoamFile
{
    version     2.0;
    format      ascii;
    arch        "LSB;label=32;scalar=64";
    class       volVectorField;
    location    "5.96";
    object      U;
}
// * * * * * * * * * * * * * * * * * * * * * * * * * * * * * * * * * * * * * //

dimensions      [0 1 -1 0 0 0 0];

internalField   nonuniform List<vector> 
66564
(
(-6.53942e-08 1.01757e-07 0)
(-4.9054e-08 -1.74314e-08 0)
(4.09547e-07 -1.8991e-07 0)
(1.21869e-06 -3.12282e-07 0)
(2.31673e-06 -3.95636e-07 0)
(3.59986e-06 -4.47038e-07 0)
(4.99498e-06 -4.72736e-07 0)
(6.43776e-06 -4.77961e-07 0)
(7.87445e-06 -4.67962e-07 0)
(9.26051e-06 -4.44844e-07 0)
(1.05568e-05 -4.12572e-07 0)
(1.17327e-05 -3.70976e-07 0)
(1.276e-05 -3.23728e-07 0)
(1.36154e-05 -2.70103e-07 0)
(1.428e-05 -2.12322e-07 0)
(1.47353e-05 -1.52032e-07 0)
(1.4969e-05 -8.81946e-08 0)
(1.4967e-05 -2.24426e-08 0)
(1.47187e-05 4.53888e-08 0)
(1.42165e-05 1.15021e-07 0)
(1.34511e-05 1.84751e-07 0)
(1.24175e-05 2.55548e-07 0)
(1.11103e-05 3.27572e-07 0)
(9.52378e-06 3.99292e-07 0)
(7.65627e-06 4.71161e-07 0)
(5.50482e-06 5.42595e-07 0)
(3.06665e-06 6.12437e-07 0)
(3.41826e-07 6.82146e-07 0)
(-2.67057e-06 7.51816e-07 0)
(-5.97183e-06 8.20568e-07 0)
(-9.56032e-06 8.89117e-07 0)
(-1.34355e-05 9.57143e-07 0)
(-1.75969e-05 1.02304e-06 0)
(-2.20422e-05 1.08794e-06 0)
(-2.67689e-05 1.15129e-06 0)
(-3.17758e-05 1.21319e-06 0)
(-3.70603e-05 1.27387e-06 0)
(-4.26184e-05 1.33377e-06 0)
(-4.84486e-05 1.3923e-06 0)
(-5.45471e-05 1.44904e-06 0)
(-6.09098e-05 1.50496e-06 0)
(-6.75337e-05 1.55966e-06 0)
(-7.44152e-05 1.61218e-06 0)
(-8.15492e-05 1.66306e-06 0)
(-8.89319e-05 1.71278e-06 0)
(-9.65596e-05 1.76062e-06 0)
(-0.000104427 1.80639e-06 0)
(-0.000112529 1.85103e-06 0)
(-0.000120863 1.89447e-06 0)
(-0.000129422 1.9361e-06 0)
(-0.000138203 1.97609e-06 0)
(-0.000147199 2.01518e-06 0)
(-0.000156406 2.05291e-06 0)
(-0.00016582 2.08835e-06 0)
(-0.000175433 2.12212e-06 0)
(-0.000185242 2.15473e-06 0)
(-0.000195241 2.18548e-06 0)
(-0.000205424 2.21428e-06 0)
(-0.000215786 2.24203e-06 0)
(-0.000226322 2.26849e-06 0)
(-0.000237026 2.29327e-06 0)
(-0.000247892 2.31658e-06 0)
(-0.000258914 2.33862e-06 0)
(-0.000270087 2.35928e-06 0)
(-0.000281405 2.37839e-06 0)
(-0.000292863 2.39566e-06 0)
(-0.000304452 2.41137e-06 0)
(-0.00031617 2.42593e-06 0)
(-0.000328009 2.43886e-06 0)
(-0.000339962 2.45015e-06 0)
(-0.000352024 2.46028e-06 0)
(-0.000364188 2.46913e-06 0)
(-0.000376449 2.47627e-06 0)
(-0.000388799 2.48224e-06 0)
(-0.000401233 2.48699e-06 0)
(-0.000413743 2.49015e-06 0)
(-0.000426323 2.49196e-06 0)
(-0.000438966 2.49199e-06 0)
(-0.000451664 2.49067e-06 0)
(-0.000464412 2.48799e-06 0)
(-0.000477201 2.48363e-06 0)
(-0.000490023 2.47768e-06 0)
(-0.000502872 2.47044e-06 0)
(-0.000515739 2.46186e-06 0)
(-0.000528618 2.45163e-06 0)
(-0.000541498 2.4399e-06 0)
(-0.000554372 2.4268e-06 0)
(-0.000567232 2.41215e-06 0)
(-0.000580068 2.39601e-06 0)
(-0.000592872 2.3779e-06 0)
(-0.000605634 2.35814e-06 0)
(-0.000618345 2.33721e-06 0)
(-0.000630994 2.31412e-06 0)
(-0.000643571 2.28909e-06 0)
(-0.000656066 2.26252e-06 0)
(-0.000668468 2.23432e-06 0)
(-0.000680766 2.20426e-06 0)
(-0.000692949 2.17219e-06 0)
(-0.000705003 2.13832e-06 0)
(-0.000716918 2.10263e-06 0)
(-0.000728681 2.06499e-06 0)
(-0.000740278 2.02524e-06 0)
(-0.000751697 1.98327e-06 0)
(-0.000762923 1.93959e-06 0)
(-0.000773942 1.89372e-06 0)
(-0.000784741 1.84556e-06 0)
(-0.000795303 1.79507e-06 0)
(-0.000805614 1.74241e-06 0)
(-0.000815659 1.6878e-06 0)
(-0.00082542 1.6307e-06 0)
(-0.000834883 1.57126e-06 0)
(-0.000844029 1.50955e-06 0)
(-0.000852841 1.44545e-06 0)
(-0.000861302 1.37911e-06 0)
(-0.000869395 1.31039e-06 0)
(-0.000877101 1.2391e-06 0)
(-0.000884402 1.16556e-06 0)
(-0.000891279 1.08952e-06 0)
(-0.000897713 1.01117e-06 0)
(-0.000903685 9.30633e-07 0)
(-0.000909176 8.47494e-07 0)
(-0.000914167 7.6194e-07 0)
(-0.000918638 6.74196e-07 0)
(-0.000922569 5.84117e-07 0)
(-0.000925942 4.91832e-07 0)
(-0.000928737 3.97494e-07 0)
(-0.000930935 3.01073e-07 0)
(-0.000932518 2.02717e-07 0)
(-0.000933465 1.02258e-07 0)
(5.95456e-08 3.88667e-08 0)
(6.01774e-07 -5.5122e-07 0)
(2.00903e-06 -1.26725e-06 0)
(4.18228e-06 -1.83985e-06 0)
(6.94453e-06 -2.25406e-06 0)
(1.0133e-05 -2.52036e-06 0)
(1.35828e-05 -2.65656e-06 0)
(1.71438e-05 -2.68265e-06 0)
(2.06833e-05 -2.61576e-06 0)
(2.40811e-05 -2.47275e-06 0)
(2.72373e-05 -2.26416e-06 0)
(3.00614e-05 -2.00292e-06 0)
(3.24765e-05 -1.69682e-06 0)
(3.44166e-05 -1.35266e-06 0)
(3.58212e-05 -9.78844e-07 0)
(3.66442e-05 -5.78762e-07 0)
(3.68387e-05 -1.58902e-07 0)
(3.63679e-05 2.7802e-07 0)
(3.52008e-05 7.29197e-07 0)
(3.33067e-05 1.19017e-06 0)
(3.06644e-05 1.65917e-06 0)
(2.72529e-05 2.13408e-06 0)
(2.30539e-05 2.61197e-06 0)
(1.80556e-05 3.09265e-06 0)
(1.22454e-05 3.57383e-06 0)
(5.6136e-06 4.05338e-06 0)
(-1.84477e-06 4.53048e-06 0)
(-1.01357e-05 5.00448e-06 0)
(-1.92628e-05 5.47372e-06 0)
(-2.92267e-05 5.93778e-06 0)
(-4.00278e-05 6.39709e-06 0)
(-5.16653e-05 6.84895e-06 0)
(-6.41357e-05 7.29399e-06 0)
(-7.74351e-05 7.73132e-06 0)
(-9.15601e-05 8.1602e-06 0)
(-0.000106504 8.58008e-06 0)
(-0.00012226 8.99162e-06 0)
(-0.000138821 9.39376e-06 0)
(-0.000156179 9.78603e-06 0)
(-0.000174324 1.01686e-05 0)
(-0.000193248 1.05414e-05 0)
(-0.000212939 1.09038e-05 0)
(-0.000233387 1.12557e-05 0)
(-0.000254581 1.15972e-05 0)
(-0.000276508 1.1928e-05 0)
(-0.000299157 1.2248e-05 0)
(-0.000322514 1.25571e-05 0)
(-0.000346566 1.28556e-05 0)
(-0.0003713 1.3143e-05 0)
(-0.000396703 1.34197e-05 0)
(-0.000422759 1.36855e-05 0)
(-0.000449455 1.39405e-05 0)
(-0.000476776 1.41848e-05 0)
(-0.000504707 1.44183e-05 0)
(-0.000533232 1.46409e-05 0)
(-0.000562336 1.48528e-05 0)
(-0.000592004 1.5054e-05 0)
(-0.00062222 1.52446e-05 0)
(-0.000652967 1.54247e-05 0)
(-0.000684229 1.55944e-05 0)
(-0.00071599 1.57534e-05 0)
(-0.000748233 1.59021e-05 0)
(-0.000780941 1.60406e-05 0)
(-0.000814098 1.61688e-05 0)
(-0.000847685 1.62869e-05 0)
(-0.000881686 1.63951e-05 0)
(-0.000916083 1.64929e-05 0)
(-0.000950858 1.65807e-05 0)
(-0.000985994 1.66588e-05 0)
(-0.00102147 1.6727e-05 0)
(-0.00105727 1.67852e-05 0)
(-0.00109338 1.68337e-05 0)
(-0.00112977 1.68725e-05 0)
(-0.00116643 1.69014e-05 0)
(-0.00120334 1.69209e-05 0)
(-0.00124047 1.69301e-05 0)
(-0.00127781 1.693e-05 0)
(-0.00131534 1.69201e-05 0)
(-0.00135303 1.69002e-05 0)
(-0.00139087 1.68706e-05 0)
(-0.00142883 1.68312e-05 0)
(-0.00146689 1.67816e-05 0)
(-0.00150503 1.67221e-05 0)
(-0.00154322 1.66526e-05 0)
(-0.00158144 1.65727e-05 0)
(-0.00161967 1.64827e-05 0)
(-0.00165788 1.63825e-05 0)
(-0.00169604 1.62717e-05 0)
(-0.00173413 1.61504e-05 0)
(-0.00177213 1.60182e-05 0)
(-0.00180999 1.5875e-05 0)
(-0.0018477 1.57212e-05 0)
(-0.00188523 1.55558e-05 0)
(-0.00192254 1.53788e-05 0)
(-0.0019596 1.51904e-05 0)
(-0.00199638 1.49903e-05 0)
(-0.00203286 1.4778e-05 0)
(-0.00206898 1.45534e-05 0)
(-0.00210472 1.43165e-05 0)
(-0.00214004 1.40668e-05 0)
(-0.00217491 1.38043e-05 0)
(-0.00220928 1.35287e-05 0)
(-0.00224312 1.32397e-05 0)
(-0.00227639 1.29372e-05 0)
(-0.00230903 1.2621e-05 0)
(-0.00234102 1.2291e-05 0)
(-0.0023723 1.19468e-05 0)
(-0.00240283 1.15879e-05 0)
(-0.00243257 1.12149e-05 0)
(-0.00246146 1.08271e-05 0)
(-0.00248946 1.04244e-05 0)
(-0.00251652 1.00068e-05 0)
(-0.00254258 9.57409e-06 0)
(-0.0025676 9.12625e-06 0)
(-0.00259153 8.66318e-06 0)
(-0.0026143 8.18467e-06 0)
(-0.00263587 7.69104e-06 0)
(-0.00265617 7.18219e-06 0)
(-0.00267517 6.65798e-06 0)
(-0.00269279 6.11893e-06 0)
(-0.00270898 5.56491e-06 0)
(-0.00272368 4.99597e-06 0)
(-0.00273684 4.41258e-06 0)
(-0.0027484 3.81491e-06 0)
(-0.00275831 3.20335e-06 0)
(-0.0027665 2.57857e-06 0)
(-0.00277292 1.9408e-06 0)
(-0.00277752 1.29068e-06 0)
(-0.00278023 6.2838e-07 0)
(1.97312e-07 -4.15422e-07 0)
(1.27359e-06 -1.98681e-06 0)
(3.61113e-06 -3.60335e-06 0)
(6.93116e-06 -4.94088e-06 0)
(1.10111e-05 -5.93234e-06 0)
(1.56384e-05 -6.5791e-06 0)
(2.0598e-05 -6.90796e-06 0)
(2.56837e-05 -6.95434e-06 0)
(3.07031e-05 -6.75772e-06 0)
(3.54857e-05 -6.3513e-06 0)
(3.98752e-05 -5.76652e-06 0)
(4.37365e-05 -5.03146e-06 0)
(4.6951e-05 -4.16724e-06 0)
(4.94086e-05 -3.19732e-06 0)
(5.10202e-05 -2.13513e-06 0)
(5.1702e-05 -9.98703e-07 0)
(5.13839e-05 1.99399e-07 0)
(5.00045e-05 1.44998e-06 0)
(4.75066e-05 2.74051e-06 0)
(4.38465e-05 4.06444e-06 0)
(3.89827e-05 5.41385e-06 0)
(3.28794e-05 6.78e-06 0)
(2.55095e-05 8.15971e-06 0)
(1.6847e-05 9.54661e-06 0)
(6.87114e-06 1.09357e-05 0)
(-4.43298e-06 1.23237e-05 0)
(-1.70792e-05 1.37067e-05 0)
(-3.10769e-05 1.50805e-05 0)
(-4.64323e-05 1.64433e-05 0)
(-6.31495e-05 1.77922e-05 0)
(-8.12307e-05 1.91242e-05 0)
(-0.000100674 2.04383e-05 0)
(-0.000121477 2.17326e-05 0)
(-0.000143635 2.30044e-05 0)
(-0.00016714 2.42531e-05 0)
(-0.000191985 2.54778e-05 0)
(-0.00021816 2.66762e-05 0)
(-0.000245654 2.78482e-05 0)
(-0.000274452 2.89927e-05 0)
(-0.000304543 3.01082e-05 0)
(-0.000335911 3.11949e-05 0)
(-0.000368539 3.22522e-05 0)
(-0.000402411 3.3279e-05 0)
(-0.000437508 3.42752e-05 0)
(-0.000473811 3.52407e-05 0)
(-0.000511302 3.61748e-05 0)
(-0.00054996 3.70774e-05 0)
(-0.000589762 3.79487e-05 0)
(-0.000630689 3.87883e-05 0)
(-0.000672718 3.95961e-05 0)
(-0.000715824 4.0372e-05 0)
(-0.000759986 4.11162e-05 0)
(-0.000805179 4.18288e-05 0)
(-0.00085138 4.25097e-05 0)
(-0.000898562 4.3159e-05 0)
(-0.000946702 4.37768e-05 0)
(-0.000995773 4.43633e-05 0)
(-0.00104575 4.49185e-05 0)
(-0.0010966 4.54429e-05 0)
(-0.00114831 4.59362e-05 0)
(-0.00120085 4.63988e-05 0)
(-0.00125418 4.6831e-05 0)
(-0.00130828 4.72328e-05 0)
(-0.00136312 4.76042e-05 0)
(-0.00141868 4.79461e-05 0)
(-0.00147492 4.82583e-05 0)
(-0.00153181 4.85406e-05 0)
(-0.00158934 4.87937e-05 0)
(-0.00164746 4.90175e-05 0)
(-0.00170615 4.92122e-05 0)
(-0.00176537 4.93778e-05 0)
(-0.0018251 4.95146e-05 0)
(-0.0018853 4.96224e-05 0)
(-0.00194595 4.97016e-05 0)
(-0.002007 4.97522e-05 0)
(-0.00206843 4.97736e-05 0)
(-0.00213021 4.97666e-05 0)
(-0.00219229 4.97307e-05 0)
(-0.00225464 4.96657e-05 0)
(-0.00231724 4.95718e-05 0)
(-0.00238003 4.94488e-05 0)
(-0.00244299 4.92965e-05 0)
(-0.00250608 4.91147e-05 0)
(-0.00256926 4.89034e-05 0)
(-0.00263248 4.86621e-05 0)
(-0.00269571 4.83904e-05 0)
(-0.00275891 4.80886e-05 0)
(-0.00282203 4.77558e-05 0)
(-0.00288503 4.73921e-05 0)
(-0.00294786 4.69966e-05 0)
(-0.00301048 4.65687e-05 0)
(-0.00307284 4.61092e-05 0)
(-0.00313489 4.56162e-05 0)
(-0.00319658 4.50893e-05 0)
(-0.00325786 4.45288e-05 0)
(-0.00331867 4.39337e-05 0)
(-0.00337896 4.33032e-05 0)
(-0.00343867 4.26369e-05 0)
(-0.00349775 4.19344e-05 0)
(-0.00355612 4.11949e-05 0)
(-0.00361374 4.04176e-05 0)
(-0.00367054 3.96024e-05 0)
(-0.00372644 3.8748e-05 0)
(-0.00378139 3.78545e-05 0)
(-0.00383532 3.69209e-05 0)
(-0.00388814 3.59467e-05 0)
(-0.0039398 3.49313e-05 0)
(-0.00399021 3.38742e-05 0)
(-0.0040393 3.27753e-05 0)
(-0.00408699 3.16336e-05 0)
(-0.0041332 3.04486e-05 0)
(-0.00417784 2.92205e-05 0)
(-0.00422084 2.79486e-05 0)
(-0.00426211 2.66329e-05 0)
(-0.00430155 2.5273e-05 0)
(-0.0043391 2.38688e-05 0)
(-0.00437464 2.24208e-05 0)
(-0.0044081 2.09286e-05 0)
(-0.00443938 1.93923e-05 0)
(-0.00446839 1.78128e-05 0)
(-0.00449503 1.61902e-05 0)
(-0.00451921 1.45252e-05 0)
(-0.00454085 1.28186e-05 0)
(-0.00455983 1.10709e-05 0)
(-0.00457608 9.28338e-06 0)
(-0.0045895 7.45747e-06 0)
(-0.00459999 5.59428e-06 0)
(-0.00460746 3.6955e-06 0)
(-0.00461183 1.76231e-06 0)
(3.1313e-07 -1.24422e-06 0)
(1.83835e-06 -4.16777e-06 0)
(4.93906e-06 -6.9285e-06 0)
(9.18768e-06 -9.19086e-06 0)
(1.42773e-05 -1.08676e-05 0)
(1.99607e-05 -1.1954e-05 0)
(2.5985e-05 -1.24851e-05 0)
(3.21002e-05 -1.25146e-05 0)
(3.8077e-05 -1.20995e-05 0)
(4.37005e-05 -1.1297e-05 0)
(4.87769e-05 -1.01603e-05 0)
(5.31331e-05 -8.73354e-06 0)
(5.66104e-05 -7.06274e-06 0)
(5.90722e-05 -5.18097e-06 0)
(6.03921e-05 -3.12183e-06 0)
(6.04608e-05 -9.14067e-07 0)
(5.91829e-05 1.42026e-06 0)
(5.64709e-05 3.8561e-06 0)
(5.22516e-05 6.37683e-06 0)
(4.64592e-05 8.96582e-06 0)
(3.90356e-05 1.16064e-05 0)
(2.99332e-05 1.4287e-05 0)
(1.91099e-05 1.69954e-05 0)
(6.52958e-06 1.97202e-05 0)
(-7.83694e-06 2.24533e-05 0)
(-2.40145e-05 2.51868e-05 0)
(-4.20227e-05 2.79118e-05 0)
(-6.18765e-05 3.06234e-05 0)
(-8.35864e-05 3.33148e-05 0)
(-0.00010716 3.59801e-05 0)
(-0.000132601 3.86154e-05 0)
(-0.000159908 4.12168e-05 0)
(-0.000189082 4.37788e-05 0)
(-0.000220115 4.63005e-05 0)
(-0.000253 4.87773e-05 0)
(-0.000287727 5.12066e-05 0)
(-0.000324283 5.35866e-05 0)
(-0.000362654 5.59148e-05 0)
(-0.000402824 5.81892e-05 0)
(-0.000444775 6.04082e-05 0)
(-0.000488486 6.25705e-05 0)
(-0.000533937 6.46746e-05 0)
(-0.000581106 6.67197e-05 0)
(-0.000629967 6.87049e-05 0)
(-0.000680496 7.06292e-05 0)
(-0.000732666 7.24919e-05 0)
(-0.000786451 7.42931e-05 0)
(-0.00084182 7.60319e-05 0)
(-0.000898746 7.77078e-05 0)
(-0.000957198 7.93213e-05 0)
(-0.00101714 8.08721e-05 0)
(-0.00107855 8.23592e-05 0)
(-0.00114139 8.37836e-05 0)
(-0.00120563 8.51457e-05 0)
(-0.00127123 8.64448e-05 0)
(-0.00133816 8.76811e-05 0)
(-0.00140638 8.88553e-05 0)
(-0.00147586 8.99674e-05 0)
(-0.00154656 9.10175e-05 0)
(-0.00161844 9.20058e-05 0)
(-0.00169147 9.29328e-05 0)
(-0.00176561 9.37993e-05 0)
(-0.00184083 9.46051e-05 0)
(-0.00191707 9.53501e-05 0)
(-0.00199431 9.60357e-05 0)
(-0.0020725 9.66623e-05 0)
(-0.0021516 9.72291e-05 0)
(-0.00223157 9.77369e-05 0)
(-0.00231238 9.81864e-05 0)
(-0.00239397 9.85775e-05 0)
(-0.00247631 9.89101e-05 0)
(-0.00255935 9.91849e-05 0)
(-0.00264305 9.94015e-05 0)
(-0.00272737 9.95605e-05 0)
(-0.00281225 9.96618e-05 0)
(-0.00289766 9.97049e-05 0)
(-0.00298355 9.96904e-05 0)
(-0.00306986 9.96183e-05 0)
(-0.00315655 9.94878e-05 0)
(-0.00324358 9.92989e-05 0)
(-0.00333088 9.90515e-05 0)
(-0.00341841 9.87453e-05 0)
(-0.00350612 9.83798e-05 0)
(-0.00359395 9.79546e-05 0)
(-0.00368184 9.74691e-05 0)
(-0.00376974 9.69229e-05 0)
(-0.00385759 9.63157e-05 0)
(-0.00394532 9.56461e-05 0)
(-0.00403289 9.49139e-05 0)
(-0.00412022 9.41188e-05 0)
(-0.00420726 9.32587e-05 0)
(-0.00429392 9.23336e-05 0)
(-0.00438015 9.13422e-05 0)
(-0.00446588 9.02833e-05 0)
(-0.00455103 8.91562e-05 0)
(-0.00463552 8.79594e-05 0)
(-0.00471928 8.66919e-05 0)
(-0.00480223 8.53526e-05 0)
(-0.0048843 8.39406e-05 0)
(-0.00496538 8.24542e-05 0)
(-0.0050454 8.08923e-05 0)
(-0.00512428 7.92543e-05 0)
(-0.0052019 7.75382e-05 0)
(-0.0052782 7.57432e-05 0)
(-0.00535306 7.38682e-05 0)
(-0.00542638 7.1912e-05 0)
(-0.00549808 6.98737e-05 0)
(-0.00556804 6.77518e-05 0)
(-0.00563615 6.55459e-05 0)
(-0.00570231 6.32548e-05 0)
(-0.0057664 6.08775e-05 0)
(-0.00582832 5.84139e-05 0)
(-0.00588794 5.58629e-05 0)
(-0.00594515 5.32241e-05 0)
(-0.00599983 5.04975e-05 0)
(-0.00605185 4.76827e-05 0)
(-0.00610109 4.47801e-05 0)
(-0.00614743 4.17899e-05 0)
(-0.00619074 3.8712e-05 0)
(-0.00623088 3.55477e-05 0)
(-0.00626774 3.22977e-05 0)
(-0.00630118 2.89631e-05 0)
(-0.00633107 2.55458e-05 0)
(-0.00635729 2.20474e-05 0)
(-0.0063797 1.84696e-05 0)
(-0.00639817 1.48151e-05 0)
(-0.00641258 1.10865e-05 0)
(-0.0064228 7.28704e-06 0)
(-0.00642871 3.41977e-06 0)
(3.95165e-07 -2.3319e-06 0)
(2.24978e-06 -6.92996e-06 0)
(5.92911e-06 -1.10057e-05 0)
(1.08635e-05 -1.42807e-05 0)
(1.6671e-05 -1.66747e-05 0)
(2.30668e-05 -1.81937e-05 0)
(2.97608e-05 -1.88866e-05 0)
(3.64768e-05 -1.88227e-05 0)
(4.29503e-05 -1.80814e-05 0)
(4.89372e-05 -1.67425e-05 0)
(5.42142e-05 -1.48779e-05 0)
(5.85735e-05 -1.25594e-05 0)
(6.18321e-05 -9.84643e-06 0)
(6.3821e-05 -6.79599e-06 0)
(6.43888e-05 -3.45786e-06 0)
(6.34027e-05 1.26483e-07 0)
(6.07404e-05 3.916e-06 0)
(5.62963e-05 7.87763e-06 0)
(4.99767e-05 1.19813e-05 0)
(4.16977e-05 1.61985e-05 0)
(3.13871e-05 2.05062e-05 0)
(1.89815e-05 2.48837e-05 0)
(4.42606e-06 2.931e-05 0)
(-1.23258e-05 3.37691e-05 0)
(-3.13124e-05 3.82456e-05 0)
(-5.25681e-05 4.27248e-05 0)
(-7.61188e-05 4.71954e-05 0)
(-0.000101985 5.16464e-05 0)
(-0.000130184 5.60675e-05 0)
(-0.000160726 6.04498e-05 0)
(-0.000193617 6.47861e-05 0)
(-0.00022886 6.90683e-05 0)
(-0.000266454 7.32899e-05 0)
(-0.000306393 7.74458e-05 0)
(-0.00034867 8.15303e-05 0)
(-0.000393272 8.55392e-05 0)
(-0.000440187 8.94682e-05 0)
(-0.000489396 9.33136e-05 0)
(-0.000540882 9.70722e-05 0)
(-0.000594622 0.000100741 0)
(-0.000650592 0.000104318 0)
(-0.000708768 0.0001078 0)
(-0.000769121 0.000111186 0)
(-0.000831621 0.000114474 0)
(-0.000896239 0.000117663 0)
(-0.000962941 0.000120751 0)
(-0.00103169 0.000123737 0)
(-0.00110246 0.000126621 0)
(-0.00117521 0.000129403 0)
(-0.00124989 0.000132081 0)
(-0.00132648 0.000134656 0)
(-0.00140494 0.000137127 0)
(-0.00148521 0.000139494 0)
(-0.00156726 0.000141758 0)
(-0.00165105 0.000143918 0)
(-0.00173653 0.000145975 0)
(-0.00182366 0.000147928 0)
(-0.0019124 0.000149779 0)
(-0.00200269 0.000151527 0)
(-0.0020945 0.000153173 0)
(-0.00218777 0.000154717 0)
(-0.00228245 0.00015616 0)
(-0.0023785 0.000157503 0)
(-0.00247587 0.000158746 0)
(-0.00257451 0.000159889 0)
(-0.00267436 0.000160934 0)
(-0.00277538 0.000161879 0)
(-0.00287752 0.000162727 0)
(-0.00298071 0.000163477 0)
(-0.00308492 0.000164129 0)
(-0.00319007 0.000164685 0)
(-0.00329613 0.000165144 0)
(-0.00340302 0.000165506 0)
(-0.00351071 0.000165772 0)
(-0.00361911 0.000165942 0)
(-0.00372819 0.000166014 0)
(-0.00383787 0.00016599 0)
(-0.00394811 0.00016587 0)
(-0.00405882 0.000165652 0)
(-0.00416996 0.000165337 0)
(-0.00428145 0.000164924 0)
(-0.00439323 0.000164413 0)
(-0.00450523 0.000163803 0)
(-0.00461738 0.000163093 0)
(-0.00472961 0.000162282 0)
(-0.00484185 0.00016137 0)
(-0.00495403 0.000160356 0)
(-0.00506605 0.000159238 0)
(-0.00517786 0.000158015 0)
(-0.00528935 0.000156686 0)
(-0.00540046 0.000155249 0)
(-0.0055111 0.000153704 0)
(-0.00562118 0.000152047 0)
(-0.0057306 0.000150278 0)
(-0.00583928 0.000148396 0)
(-0.00594711 0.000146397 0)
(-0.00605401 0.00014428 0)
(-0.00615986 0.000142043 0)
(-0.00626457 0.000139686 0)
(-0.00636803 0.000137204 0)
(-0.00647012 0.000134596 0)
(-0.00657073 0.000131862 0)
(-0.00666974 0.000128998 0)
(-0.00676705 0.000126002 0)
(-0.00686251 0.000122873 0)
(-0.00695601 0.000119609 0)
(-0.00704741 0.000116208 0)
(-0.00713659 0.000112668 0)
(-0.00722341 0.000108988 0)
(-0.00730772 0.000105168 0)
(-0.00738939 0.000101203 0)
(-0.00746827 9.70956e-05 0)
(-0.00754422 9.28431e-05 0)
(-0.00761708 8.8445e-05 0)
(-0.00768669 8.39009e-05 0)
(-0.00775291 7.92105e-05 0)
(-0.00781558 7.43744e-05 0)
(-0.00787454 6.93931e-05 0)
(-0.00792962 6.42667e-05 0)
(-0.00798066 5.89969e-05 0)
(-0.0080275 5.35852e-05 0)
(-0.00806998 4.80337e-05 0)
(-0.00810793 4.2345e-05 0)
(-0.00814118 3.65219e-05 0)
(-0.00816958 3.05676e-05 0)
(-0.00819295 2.44866e-05 0)
(-0.00821114 1.8283e-05 0)
(-0.00822399 1.19619e-05 0)
(-0.00823133 5.52865e-06 0)
(4.45753e-07 -3.61027e-06 0)
(2.51777e-06 -1.01171e-05 0)
(6.57949e-06 -1.5634e-05 0)
(1.19562e-05 -1.99661e-05 0)
(1.8201e-05 -2.30706e-05 0)
(2.49852e-05 -2.49776e-05 0)
(3.19962e-05 -2.57551e-05 0)
(3.89251e-05 -2.54946e-05 0)
(4.54846e-05 -2.42976e-05 0)
(5.14085e-05 -2.22636e-05 0)
(5.64451e-05 -1.94928e-05 0)
(6.03668e-05 -1.60735e-05 0)
(6.29628e-05 -1.20901e-05 0)
(6.40417e-05 -7.61931e-06 0)
(6.34316e-05 -2.72737e-06 0)
(6.09742e-05 2.52312e-06 0)
(5.65298e-05 8.07773e-06 0)
(4.9973e-05 1.38893e-05 0)
(4.11908e-05 1.99121e-05 0)
(3.00845e-05 2.61076e-05 0)
(1.65673e-05 3.24417e-05 0)
(5.60976e-07 3.88816e-05 0)
(-1.80012e-05 4.54004e-05 0)
(-3.91756e-05 5.19727e-05 0)
(-6.30131e-05 5.85754e-05 0)
(-8.95541e-05 6.5188e-05 0)
(-0.000118832 7.17927e-05 0)
(-0.000150875 7.83719e-05 0)
(-0.000185705 8.49116e-05 0)
(-0.000223335 9.13987e-05 0)
(-0.000263777 9.78206e-05 0)
(-0.000307036 0.000104166 0)
(-0.000353111 0.000110427 0)
(-0.000401999 0.000116592 0)
(-0.000453692 0.000122656 0)
(-0.000508177 0.000128609 0)
(-0.00056544 0.000134447 0)
(-0.000625462 0.000140163 0)
(-0.000688222 0.000145753 0)
(-0.000753695 0.000151212 0)
(-0.000821854 0.000156536 0)
(-0.000892669 0.000161721 0)
(-0.000966109 0.000166765 0)
(-0.00104214 0.000171665 0)
(-0.00112072 0.000176418 0)
(-0.00120182 0.000181023 0)
(-0.0012854 0.000185479 0)
(-0.00137141 0.000189783 0)
(-0.00145981 0.000193935 0)
(-0.00155056 0.000197934 0)
(-0.00164361 0.00020178 0)
(-0.00173891 0.000205473 0)
(-0.00183642 0.000209011 0)
(-0.00193608 0.000212395 0)
(-0.00203784 0.000215625 0)
(-0.00214166 0.000218702 0)
(-0.00224747 0.000221624 0)
(-0.00235523 0.000224394 0)
(-0.00246488 0.000227011 0)
(-0.00257636 0.000229475 0)
(-0.00268961 0.000231788 0)
(-0.00280458 0.00023395 0)
(-0.00292121 0.000235962 0)
(-0.00303945 0.000237824 0)
(-0.00315922 0.000239538 0)
(-0.00328046 0.000241103 0)
(-0.00340313 0.000242521 0)
(-0.00352714 0.000243792 0)
(-0.00365245 0.000244917 0)
(-0.00377897 0.000245896 0)
(-0.00390666 0.000246729 0)
(-0.00403543 0.000247417 0)
(-0.00416523 0.00024796 0)
(-0.00429598 0.000248359 0)
(-0.00442761 0.000248613 0)
(-0.00456005 0.000248721 0)
(-0.00469323 0.000248685 0)
(-0.00482707 0.000248503 0)
(-0.0049615 0.000248175 0)
(-0.00509644 0.000247701 0)
(-0.00523181 0.00024708 0)
(-0.00536752 0.000246311 0)
(-0.0055035 0.000245394 0)
(-0.00563966 0.000244326 0)
(-0.00577591 0.000243107 0)
(-0.00591217 0.000241736 0)
(-0.00604834 0.000240211 0)
(-0.00618434 0.000238529 0)
(-0.00632005 0.000236691 0)
(-0.00645539 0.000234693 0)
(-0.00659025 0.000232533 0)
(-0.00672453 0.00023021 0)
(-0.00685812 0.00022772 0)
(-0.00699091 0.000225062 0)
(-0.00712279 0.000222232 0)
(-0.00725364 0.000219227 0)
(-0.00738333 0.000216046 0)
(-0.00751176 0.000212686 0)
(-0.00763878 0.000209143 0)
(-0.00776428 0.000205415 0)
(-0.0078881 0.000201498 0)
(-0.00801013 0.000197391 0)
(-0.0081302 0.00019309 0)
(-0.00824819 0.000188591 0)
(-0.00836393 0.000183893 0)
(-0.00847728 0.000178993 0)
(-0.00858808 0.000173888 0)
(-0.00869616 0.000168576 0)
(-0.00880136 0.000163054 0)
(-0.00890352 0.000157321 0)
(-0.00900247 0.000151374 0)
(-0.00909801 0.000145213 0)
(-0.00918999 0.000138835 0)
(-0.0092782 0.000132239 0)
(-0.00936248 0.000125426 0)
(-0.00944263 0.000118395 0)
(-0.00951846 0.000111146 0)
(-0.00958978 0.00010368 0)
(-0.00965639 9.59982e-05 0)
(-0.0097181 8.81027e-05 0)
(-0.0097747 7.99958e-05 0)
(-0.00982601 7.16806e-05 0)
(-0.00987181 6.31607e-05 0)
(-0.00991192 5.44408e-05 0)
(-0.00994614 4.5526e-05 0)
(-0.00997426 3.64223e-05 0)
(-0.00999609 2.7136e-05 0)
(-0.0100114 1.76747e-05 0)
(-0.0100201 8.04703e-06 0)
(4.72216e-07 -5.00243e-06 0)
(2.65732e-06 -1.357e-05 0)
(6.91567e-06 -2.05996e-05 0)
(1.25024e-05 -2.59958e-05 0)
(1.89125e-05 -2.97718e-05 0)
(2.57898e-05 -3.19903e-05 0)
(3.27874e-05 -3.27497e-05 0)
(3.95779e-05 -3.21667e-05 0)
(4.58534e-05 -3.03634e-05 0)
(5.13238e-05 -2.74673e-05 0)
(5.57234e-05 -2.35976e-05 0)
(5.88022e-05 -1.88685e-05 0)
(6.03295e-05 -1.33862e-05 0)
(6.00967e-05 -7.24523e-06 0)
(5.791e-05 -5.35528e-07 0)
(5.35945e-05 6.66349e-06 0)
(4.69932e-05 1.42815e-05 0)
(3.79618e-05 2.22521e-05 0)
(2.63721e-05 3.05176e-05 0)
(1.21118e-05 3.90262e-05 0)
(-4.92235e-06 4.77292e-05 0)
(-2.48193e-05 5.65846e-05 0)
(-4.7657e-05 6.55544e-05 0)
(-7.3505e-05 7.46035e-05 0)
(-0.000102421 8.37004e-05 0)
(-0.000134455 9.28184e-05 0)
(-0.000169649 0.00010193 0)
(-0.000208037 0.000111014 0)
(-0.000249644 0.000120048 0)
(-0.000294492 0.000129014 0)
(-0.000342594 0.000137896 0)
(-0.000393957 0.000146677 0)
(-0.000448585 0.000155344 0)
(-0.000506475 0.000163884 0)
(-0.000567619 0.000172287 0)
(-0.000632006 0.000180542 0)
(-0.00069962 0.000188639 0)
(-0.000770442 0.000196572 0)
(-0.000844447 0.000204332 0)
(-0.00092161 0.000211914 0)
(-0.0010019 0.000219311 0)
(-0.00108528 0.000226519 0)
(-0.00117173 0.000233532 0)
(-0.00126119 0.000240348 0)
(-0.00135363 0.000246962 0)
(-0.00144901 0.000253372 0)
(-0.00154728 0.000259576 0)
(-0.00164839 0.000265572 0)
(-0.0017523 0.000271357 0)
(-0.00185895 0.000276931 0)
(-0.00196829 0.000282293 0)
(-0.00208026 0.000287442 0)
(-0.00219481 0.000292377 0)
(-0.00231189 0.000297099 0)
(-0.00243143 0.000301607 0)
(-0.00255336 0.000305902 0)
(-0.00267764 0.000309983 0)
(-0.0028042 0.000313851 0)
(-0.00293297 0.000317506 0)
(-0.00306389 0.00032095 0)
(-0.0031969 0.000324182 0)
(-0.00333191 0.000327204 0)
(-0.00346887 0.000330017 0)
(-0.00360771 0.000332621 0)
(-0.00374836 0.000335018 0)
(-0.00389074 0.000337207 0)
(-0.00403478 0.00033919 0)
(-0.0041804 0.000340969 0)
(-0.00432754 0.000342542 0)
(-0.00447612 0.000343911 0)
(-0.00462605 0.000345077 0)
(-0.00477726 0.00034604 0)
(-0.00492967 0.0003468 0)
(-0.0050832 0.000347356 0)
(-0.00523777 0.00034771 0)
(-0.00539328 0.000347861 0)
(-0.00554966 0.000347808 0)
(-0.00570681 0.000347552 0)
(-0.00586465 0.000347091 0)
(-0.00602309 0.000346424 0)
(-0.00618202 0.000345552 0)
(-0.00634137 0.000344472 0)
(-0.00650102 0.000343183 0)
(-0.00666088 0.000341684 0)
(-0.00682084 0.000339973 0)
(-0.0069808 0.000338048 0)
(-0.00714066 0.000335907 0)
(-0.0073003 0.000333548 0)
(-0.00745961 0.000330967 0)
(-0.00761846 0.000328164 0)
(-0.00777676 0.000325133 0)
(-0.00793436 0.000321872 0)
(-0.00809114 0.000318379 0)
(-0.00824698 0.000314648 0)
(-0.00840173 0.000310678 0)
(-0.00855527 0.000306464 0)
(-0.00870745 0.000302002 0)
(-0.00885812 0.000297289 0)
(-0.00900714 0.00029232 0)
(-0.00915435 0.000287092 0)
(-0.00929959 0.000281601 0)
(-0.0094427 0.000275842 0)
(-0.00958352 0.000269812 0)
(-0.00972187 0.000263507 0)
(-0.00985757 0.000256923 0)
(-0.00999046 0.000250056 0)
(-0.0101203 0.000242904 0)
(-0.010247 0.000235461 0)
(-0.0103703 0.000227727 0)
(-0.01049 0.000219697 0)
(-0.0106059 0.00021137 0)
(-0.0107179 0.000202742 0)
(-0.0108256 0.000193813 0)
(-0.0109289 0.000184581 0)
(-0.0110275 0.000175045 0)
(-0.0111214 0.000165206 0)
(-0.0112101 0.000155063 0)
(-0.0112935 0.000144618 0)
(-0.0113714 0.000133873 0)
(-0.0114436 0.00012283 0)
(-0.0115097 0.000111493 0)
(-0.0115697 9.98668e-05 0)
(-0.0116231 8.79558e-05 0)
(-0.0116699 7.57666e-05 0)
(-0.0117098 6.33064e-05 0)
(-0.0117425 5.05836e-05 0)
(-0.0117679 3.76076e-05 0)
(-0.0117856 2.43885e-05 0)
(-0.0117956 1.09382e-05 0)
(4.78274e-07 -6.4456e-06 0)
(2.68804e-06 -1.7139e-05 0)
(6.97536e-06 -2.56961e-05 0)
(1.25511e-05 -3.21257e-05 0)
(1.8879e-05 -3.64996e-05 0)
(2.55673e-05 -3.89287e-05 0)
(3.22501e-05 -3.95442e-05 0)
(3.85798e-05 -3.849e-05 0)
(4.42283e-05 -3.59183e-05 0)
(4.88934e-05 -3.1977e-05 0)
(5.22904e-05 -2.68107e-05 0)
(5.41539e-05 -2.05582e-05 0)
(5.42404e-05 -1.33448e-05 0)
(5.23216e-05 -5.29015e-06 0)
(4.81889e-05 3.49764e-06 0)
(4.16536e-05 1.29208e-05 0)
(3.25407e-05 2.28878e-05 0)
(2.06926e-05 3.33174e-05 0)
(5.96836e-06 4.41364e-05 0)
(-1.17614e-05 5.52771e-05 0)
(-3.26099e-05 6.66783e-05 0)
(-5.66782e-05 7.82864e-05 0)
(-8.40566e-05 9.00503e-05 0)
(-0.000114823 0.000101925 0)
(-0.000149045 0.000113871 0)
(-0.000186781 0.00012585 0)
(-0.00022808 0.000137828 0)
(-0.000272982 0.000149776 0)
(-0.00032152 0.000161666 0)
(-0.000373719 0.000173473 0)
(-0.000429595 0.000185175 0)
(-0.000489161 0.00019675 0)
(-0.000552422 0.00020818 0)
(-0.000619376 0.000219449 0)
(-0.000690018 0.000230541 0)
(-0.000764336 0.000241442 0)
(-0.000842315 0.000252141 0)
(-0.000923934 0.000262627 0)
(-0.00100917 0.000272888 0)
(-0.00109799 0.000282918 0)
(-0.00119037 0.000292707 0)
(-0.00128626 0.000302248 0)
(-0.00138564 0.000311536 0)
(-0.00148845 0.000320565 0)
(-0.00159465 0.000329331 0)
(-0.0017042 0.000337828 0)
(-0.00181705 0.000346055 0)
(-0.00193313 0.000354008 0)
(-0.0020524 0.000361684 0)
(-0.00217481 0.000369082 0)
(-0.00230028 0.000376201 0)
(-0.00242876 0.000383039 0)
(-0.00256018 0.000389595 0)
(-0.00269449 0.000395869 0)
(-0.00283161 0.00040186 0)
(-0.00297148 0.000407569 0)
(-0.00311402 0.000412995 0)
(-0.00325917 0.000418139 0)
(-0.00340685 0.000423002 0)
(-0.00355698 0.000427584 0)
(-0.00370951 0.000431885 0)
(-0.00386433 0.000435908 0)
(-0.00402139 0.000439652 0)
(-0.00418059 0.000443119 0)
(-0.00434186 0.00044631 0)
(-0.00450512 0.000449226 0)
(-0.00467028 0.000451868 0)
(-0.00483726 0.000454236 0)
(-0.00500597 0.000456331 0)
(-0.00517632 0.000458155 0)
(-0.00534823 0.000459708 0)
(-0.00552161 0.00046099 0)
(-0.00569635 0.000462001 0)
(-0.00587238 0.000462741 0)
(-0.0060496 0.000463211 0)
(-0.0062279 0.000463409 0)
(-0.00640719 0.000463336 0)
(-0.00658736 0.000462991 0)
(-0.00676832 0.000462373 0)
(-0.00694996 0.000461481 0)
(-0.00713217 0.000460313 0)
(-0.00731484 0.000458868 0)
(-0.00749786 0.000457144 0)
(-0.00768112 0.00045514 0)
(-0.00786449 0.000452852 0)
(-0.00804785 0.000450278 0)
(-0.00823109 0.000447416 0)
(-0.00841406 0.000444262 0)
(-0.00859665 0.000440812 0)
(-0.00877872 0.000437064 0)
(-0.00896013 0.000433013 0)
(-0.00914074 0.000428655 0)
(-0.00932041 0.000423986 0)
(-0.00949897 0.000419001 0)
(-0.00967629 0.000413696 0)
(-0.0098522 0.000408066 0)
(-0.0100265 0.000402105 0)
(-0.0101991 0.000395809 0)
(-0.0103698 0.000389172 0)
(-0.0105385 0.00038219 0)
(-0.0107048 0.000374856 0)
(-0.0108687 0.000367167 0)
(-0.0110299 0.000359116 0)
(-0.0111883 0.000350699 0)
(-0.0113437 0.000341911 0)
(-0.0114958 0.000332746 0)
(-0.0116445 0.000323201 0)
(-0.0117894 0.000313271 0)
(-0.0119305 0.000302952 0)
(-0.0120675 0.000292241 0)
(-0.0122001 0.000281133 0)
(-0.0123281 0.000269628 0)
(-0.0124513 0.000257722 0)
(-0.0125694 0.000245413 0)
(-0.0126822 0.000232702 0)
(-0.0127894 0.000219587 0)
(-0.0128908 0.00020607 0)
(-0.0129862 0.000192152 0)
(-0.0130751 0.000177836 0)
(-0.0131575 0.000163125 0)
(-0.013233 0.000148024 0)
(-0.0133013 0.00013254 0)
(-0.0133623 0.000116679 0)
(-0.0134156 0.00010045 0)
(-0.013461 8.38616e-05 0)
(-0.0134982 6.6926e-05 0)
(-0.0135269 4.96553e-05 0)
(-0.013547 3.20628e-05 0)
(-0.0135581 1.41646e-05 0)
(4.69032e-07 -7.88576e-06 0)
(2.6281e-06 -2.06918e-05 0)