# Probe 0 (0.5 0.5 0.05)
#       Probe             0
#        Time
        0.001      0.321841
        0.002    -0.0560026
        0.003      0.146143
        0.004      0.109072
        0.005     0.0718849
        0.006      0.086441
        0.007     0.0629654
        0.008     0.0729576
        0.009     0.0580569
         0.01     0.0641774
        0.011      0.053839
        0.012     0.0681039
        0.013     0.0544416
        0.014     0.0505696
        0.015     0.0531517
        0.016     0.0412939
        0.017     0.0480905
        0.018     0.0429509
        0.019     0.0503262
         0.02     0.0433475
        0.021     0.0413325
        0.022     0.0425718
        0.023      0.036428
        0.024     0.0398451
        0.025      0.036877
        0.026     0.0410121
        0.027     0.0370153
        0.028     0.0356494
        0.029      0.036556
         0.03     0.0323155
        0.031     0.0347002
        0.032     0.0326603
        0.033     0.0354893
        0.034     0.0327477
        0.035     0.0317542
        0.036     0.0324454
        0.037     0.0292979
        0.038     0.0310782
        0.039     0.0295608
         0.04     0.0316574
        0.041     0.0296324
        0.042     0.0288467
        0.043     0.0293849
        0.044     0.0269491
        0.045     0.0314185
        0.046     0.0276984
        0.047     0.0273872
        0.048     0.0271219
        0.049     0.0267236
         0.05     0.0266589
        0.051     0.0258486
        0.052     0.0267877
        0.053     0.0237117
        0.054     0.0256842
        0.055     0.0245809
        0.056     0.0262367
        0.057     0.0247146
        0.058     0.0242721
        0.059     0.0245083
         0.06     0.0232074
        0.061     0.0254725
        0.062     0.0235333
        0.063     0.0232501
        0.064      0.023261
        0.065     0.0225612
        0.066     0.0235209
        0.067     0.0206695
        0.068     0.0225664
        0.069     0.0216872
         0.07     0.0230576
        0.071     0.0218299
        0.072      0.021523
        0.073     0.0216795
        0.074     0.0207637
        0.075     0.0223325
        0.076     0.0209817
        0.077     0.0207395
        0.078     0.0207533
        0.079     0.0202601
         0.08     0.0209056
        0.081      0.018927
        0.082     0.0202123
        0.083     0.0195936
        0.084     0.0204984
        0.085      0.019676
        0.086     0.0193806
        0.087     0.0196251
        0.088     0.0186299
        0.089     0.0204941
         0.09     0.0189797
        0.091     0.0188267
        0.092     0.0188289
        0.093     0.0183861
        0.094     0.0190075
        0.095     0.0171895
        0.096     0.0183952
        0.097     0.0178574
        0.098     0.0187067
        0.099     0.0179569
          0.1     0.0177277
        0.101     0.0179004
        0.102     0.0171516
        0.103     0.0185276
        0.104     0.0173974
        0.105     0.0172588
        0.106     0.0172629
        0.107     0.0169158
        0.108     0.0173883
        0.109      0.015979
         0.11     0.0169079
        0.111     0.0164718
        0.112     0.0171493
        0.113     0.0165451
        0.114     0.0163576
        0.115     0.0164903
        0.116     0.0158905
        0.117     0.0169788
        0.118     0.0160835
        0.119      0.015944
         0.12     0.0159507
        0.121      0.015653
        0.122     0.0160608
        0.123     0.0148553
        0.124     0.0156583
        0.125     0.0152635
        0.126     0.0158898
        0.127      0.015339
        0.128     0.0151813
        0.129      0.015296
         0.13     0.0147819
        0.131     0.0157117
        0.132      0.014944
        0.133     0.0148309
        0.134     0.0148359
        0.135     0.0146077
        0.136     0.0148961
        0.137     0.0139993
        0.138     0.0145819
        0.139     0.0142632
         0.14     0.0147608
        0.141     0.0133915
        0.142      0.014328
        0.143     0.0139552
        0.144     0.0145734
        0.145     0.0140442
        0.146     0.0139169
        0.147     0.0140006
        0.148     0.0135975
        0.149     0.0143114
         0.15     0.0137161
        0.151     0.0136096
        0.152      0.013616
        0.153     0.0134378
        0.154      0.013648
        0.155     0.0129652
        0.156     0.0143319
        0.157     0.0132602
        0.158     0.0132604
        0.159     0.0130613
         0.16      0.013327
        0.161     0.0125297
        0.162     0.0130507
        0.163     0.0127894
        0.164     0.0132033
        0.165     0.0120678
        0.166     0.0128456
        0.167     0.0124823
        0.168     0.0131147
        0.169     0.0126103
         0.17     0.0124572
        0.171     0.0126319
        0.172     0.0120603
        0.173     0.0124479
        0.174     0.0121489
        0.175     0.0126498
        0.176     0.0122457
        0.177     0.0120857
        0.178      0.012284
        0.179     0.0116671
         0.18     0.0120872
        0.181     0.0118033
        0.182     0.0122767
        0.183     0.0118951
        0.184     0.0117407
        0.185     0.0119339
        0.186     0.0113363
        0.187     0.0117442
        0.188     0.0114705
        0.189      0.011929
         0.19       0.01156
        0.191     0.0114132
        0.192     0.0115963
        0.193     0.0110289
        0.194     0.0114164
        0.195     0.0111534
        0.196     0.0115956
        0.197       0.01124
        0.198     0.0110998
        0.199     0.0112749
          0.2     0.0107322
        0.201      0.011103
        0.202       0.01085
        0.203     0.0112768
        0.204     0.0109335
        0.205     0.0108006
        0.206     0.0109652
        0.207     0.0104523
        0.208     0.0108028
        0.209     0.0105595
         0.21     0.0109707
        0.211     0.0106398
        0.212     0.0105131
        0.213     0.0106695
        0.214     0.0101808
        0.215     0.0105128
        0.216     0.0102855
        0.217     0.0106658
        0.218     0.0103583
        0.219     0.0102361
         0.22     0.0103875
        0.221    0.00991518
        0.222     0.0102359
        0.223     0.0100179
        0.224     0.0103822
        0.225     0.0100871
        0.226    0.00997047
        0.227     0.0101143
        0.228    0.00966377
        0.229    0.00996933
         0.23    0.00976047
        0.231     0.0101087
        0.232    0.00982592
        0.233    0.00971462
        0.234    0.00985088
        0.235     0.0094221
        0.236    0.00971251
        0.237     0.0095119
        0.238    0.00984595
        0.239    0.00957405
         0.24    0.00946774
        0.241    0.00959686
        0.242    0.00918844
        0.243    0.00946462
        0.244    0.00927215
        0.245     0.0095917
        0.246    0.00933168
        0.247    0.00922806
        0.248    0.00931522
        0.249    0.00900686
         0.25    0.00959628
        0.251    0.00913757
        0.252    0.00907598
        0.253    0.00907931
        0.254    0.00900103
        0.255    0.00907589
        0.256    0.00880058
        0.257    0.00931914
        0.258    0.00891298
        0.259    0.00884705
         0.26    0.00885163
        0.261    0.00878462
        0.262     0.0087895
        0.263    0.00872186
        0.264    0.00872689
        0.265     0.0086608
        0.266    0.00866556
        0.267    0.00859854
        0.268    0.00860357
        0.269    0.00853928
         0.27    0.00854378
        0.271    0.00847688
        0.272    0.00848202
        0.273    0.00842033
        0.274     0.0084244
        0.275    0.00835642
        0.276    0.00841673
        0.277    0.00818262
        0.278     0.0086174
        0.279    0.00827468
         0.28    0.00820948
        0.281    0.00826815
        0.282    0.00804204
        0.283    0.00846101
        0.284    0.00813062
        0.285    0.00806531
        0.286    0.00812643
        0.287    0.00789633
        0.288    0.00832654
        0.289    0.00798842
         0.29    0.00792609
        0.291    0.00793104
        0.292    0.00792538
        0.293    0.00780905
        0.294    0.00797713
        0.295     0.0075094
        0.296    0.00783078
        0.297    0.00766621
        0.298    0.00794828
        0.299    0.00722174
          0.3    0.00773213
        0.301     0.0075411
        0.302    0.00788189
        0.303    0.00760968
        0.304    0.00754257
        0.305    0.00761342
        0.306    0.00736774
        0.307    0.00783907
        0.308    0.00747242
        0.309    0.00746757
         0.31    0.00735747
        0.311    0.00751945
        0.312    0.00707138
        0.313    0.00737948
        0.314    0.00722456
        0.315    0.00749031
        0.316    0.00680626
        0.317    0.00728684
        0.318    0.00710691
        0.319    0.00742824
         0.32    0.00661896
        0.321    0.00719131
        0.322    0.00699859
        0.323    0.00734872
        0.324    0.00707113
        0.325    0.00701263
        0.326    0.00706996
        0.327     0.0068609
        0.328    0.00725533
        0.329    0.00694639
         0.33    0.00694145
        0.331    0.00683588
        0.332    0.00699328
        0.333    0.00656107
        0.334    0.00685903
        0.335    0.00671304
        0.336    0.00696444
        0.337    0.00631853
        0.338    0.00677254
        0.339    0.00660387
         0.34    0.00690545
        0.341    0.00665841
        0.342    0.00655015
        0.343    0.00671561
        0.344    0.00627143
        0.345     0.0065965
        0.346    0.00639902
        0.347     0.0067599
        0.348    0.00649563
        0.349    0.00639428
         0.35     0.0065464
        0.351     0.0061339
        0.352    0.00643582
        0.353    0.00624542
        0.354    0.00659245
        0.355    0.00633827
        0.356    0.00623875
        0.357    0.00638828
        0.358    0.00598312
        0.359    0.00627954
         0.36    0.00609349
        0.361    0.00643242
        0.362    0.00618361
        0.363    0.00608779
        0.364    0.00623072
        0.365    0.00584178
        0.366    0.00612624
        0.367     0.0059453
        0.368    0.00627442
        0.369    0.00603316
         0.37    0.00593806
        0.371    0.00608063
        0.372    0.00569416
        0.373    0.00597659
        0.374    0.00579916
        0.375    0.00612191
        0.376     0.0058852
        0.377    0.00579241
        0.378    0.00593119
        0.379    0.00555456
         0.38    0.00582966
        0.381    0.00565644
        0.382    0.00597122
        0.383     0.0057398
        0.384     0.0056503
        0.385    0.00578319
        0.386    0.00542097
        0.387    0.00568543
        0.388    0.00551681
        0.389    0.00582279
         0.39     0.0055977
        0.391    0.00550998
        0.392    0.00564013
        0.393    0.00528524
        0.394    0.00554421
        0.395    0.00537933
        0.396    0.00567824
        0.397    0.00545824
        0.398    0.00537237
        0.399    0.00549958
          0.4    0.00515247
        0.401    0.00540559
        0.402    0.00524447
        0.403    0.00553621
        0.404    0.00532136
        0.405    0.00523727
        0.406    0.00536165
        0.407      0.005022
        0.408    0.00526953
        0.409    0.00511208
         0.41     0.0053969
        0.411    0.00518694
        0.412     0.0051046
        0.413    0.00522617
        0.414    0.00489389
        0.415     0.0051359
        0.416    0.00498193
        0.417    0.00526011
        0.418     0.0050549
        0.419    0.00497424
         0.42    0.00509313
        0.421    0.00476791
        0.422    0.00500461
        0.423    0.00485404
        0.424    0.00512571
        0.425    0.00492514
        0.426    0.00484613
        0.427    0.00496236
        0.428    0.00464408
        0.429    0.00487558
         0.43    0.00472825
        0.431    0.00499375
        0.432    0.00479758
        0.433    0.00472026
        0.434    0.00483379
        0.435    0.00452234
        0.436    0.00474851
        0.437    0.00460513
        0.438    0.00486284
        0.439    0.00467221
         0.44    0.00459622
        0.441    0.00470772
        0.442    0.00440174
        0.443    0.00462379
        0.444    0.00448332
        0.445    0.00473563
        0.446    0.00454848
        0.447    0.00447483
        0.448    0.00458227
        0.449    0.00428642
         0.45    0.00450089
        0.451    0.00436382
        0.452     0.0046095
        0.453     0.0044271
        0.454    0.00435473
        0.455    0.00446018
        0.456    0.00416965
        0.457    0.00438012
        0.458    0.00424577
        0.459    0.00448626
         0.46    0.00430756
        0.461     0.0042367
        0.462    0.00433971
        0.463     0.0040553
        0.464    0.00426119
        0.465    0.00412978
        0.466    0.00436465
        0.467    0.00418986
        0.468    0.00412033
        0.469     0.0042212
         0.47    0.00394235
        0.471    0.00414407
        0.472    0.00401529
        0.473    0.00424511
        0.474    0.00407371
        0.475    0.00400595
        0.476    0.00410388
        0.477    0.00383238
        0.478    0.00402863
        0.479    0.00390261
         0.48    0.00412706
        0.481     0.0039595
        0.482    0.00389295
        0.483    0.00398892
        0.484    0.00372301
        0.485    0.00391475
        0.486    0.00379193
        0.487     0.0040099
        0.488      0.003847
        0.489    0.00378161
         0.49    0.00387594
        0.491    0.00361442
        0.492    0.00380275
        0.493    0.00368222
        0.494    0.00389573
        0.495    0.00373602
        0.496    0.00367182
        0.497    0.00376417
        0.498     0.0035078
        0.499    0.00369228
          0.5    0.00357407
        0.501    0.00378307
        0.502    0.00362659
        0.503    0.00356352
        0.504    0.00365407
        0.505    0.00340247
        0.506    0.00358336
        0.507    0.00346728
        0.508    0.00367224
        0.509    0.00351864
         0.51    0.00345669
        0.511    0.00354536
        0.512    0.00329862
        0.513    0.00347591
        0.514     0.0033619
        0.515    0.00356295
        0.516    0.00341216
        0.517    0.00335125
        0.518    0.00343815
        0.519    0.00319599
         0.52     0.0033699
        0.521    0.00325786
        0.522    0.00345513
        0.523    0.00294557
        0.524    0.00329969
        0.525    0.00319247
        0.526    0.00338071
        0.527    0.00291948
        0.528    0.00324012
        0.529    0.00313855
         0.53    0.00331531
        0.531    0.00287916
        0.532    0.00318148
        0.533    0.00308258
        0.534    0.00325346
        0.535    0.00283103
        0.536    0.00312363
        0.537    0.00302715
        0.538    0.00319281
        0.539    0.00278194
         0.54    0.00306617
        0.541    0.00297147
        0.542    0.00313427
        0.543    0.00273014
        0.544    0.00300931
        0.545    0.00291525
        0.546    0.00307701
        0.547     0.0026759
        0.548    0.00295291
        0.549    0.00286021
         0.55    0.00301916
        0.551    0.00262408
        0.552    0.00289675
        0.553    0.00280522
        0.554    0.00296187
        0.555    0.00257214
        0.556    0.00284098
        0.557    0.00275055
        0.558    0.00290507
        0.559     0.0025203
         0.56    0.00278558
        0.561    0.00269618
        0.562     0.0028487
        0.563    0.00246862
        0.564    0.00273052
        0.565    0.00264214
        0.566     0.0027927
        0.567    0.00241721
        0.568     0.0026758
        0.569    0.00258847
         0.57    0.00273695
        0.571    0.00236636
        0.572    0.00262143
        0.573    0.00253511
        0.574    0.00268163
        0.575    0.00231561
        0.576    0.00256739
        0.577     0.0024821
        0.578    0.00262659
        0.579    0.00226534
         0.58    0.00251367
        0.581     0.0024294
        0.582    0.00257189
        0.583    0.00221532
        0.584    0.00246027
        0.585    0.00237704
        0.586    0.00251751
        0.587    0.00216564
        0.588    0.00240722
        0.589    0.00232492
         0.59    0.00246359
        0.591    0.00211594
        0.592     0.0023545
        0.593     0.0022731
        0.594    0.00241003
        0.595    0.00206645
        0.596    0.00230207
        0.597    0.00222161
        0.598    0.00235671
        0.599    0.00201742
          0.6    0.00271362
        0.601    0.00219743
        0.602    0.00220038
        0.603    0.00219865
        0.604    0.00219402
        0.605    0.00212789
        0.606    0.00222986
        0.607    0.00196572
        0.608    0.00250072
        0.609    0.00210046
         0.61    0.00210188
        0.611    0.00209916
        0.612    0.00204985
        0.613    0.00211612
        0.614    0.00193056
        0.615    0.00229561
        0.616    0.00201755
        0.617    0.00201737
        0.618    0.00201362
        0.619    0.00195482
         0.62    0.00204187
        0.621    0.00181136
        0.622    0.00227457
        0.623    0.00192581
        0.624    0.00192659
        0.625    0.00192356
        0.626    0.00187205
        0.627    0.00194382
        0.628    0.00174704
        0.629    0.00213743
         0.63    0.00184113
        0.631    0.00184127
        0.632    0.00183782
        0.633    0.00178272
        0.634    0.00186258
        0.635    0.00164855
        0.636    0.00207697
        0.637    0.00175324
        0.638    0.00175379
        0.639    0.00175065
         0.64    0.00169899
        0.641    0.00177183
        0.642    0.00157344
        0.643    0.00196809
        0.644    0.00166875
        0.645    0.00166902
        0.646    0.00166573
        0.647    0.00161292
        0.648    0.00168858
        0.649    0.00148443
         0.65    0.00189201
        0.651    0.00158335
        0.652    0.00158379
        0.653    0.00158064
        0.654    0.00152967
        0.655     0.0016017
        0.656     0.0014058
        0.657     0.0017957
        0.658    0.00149982
        0.659    0.00150013
         0.66    0.00149693
        0.661    0.00144581
        0.662    0.00151848
        0.663    0.00132156
        0.664    0.00171403
        0.665     0.0014163
        0.666    0.00141668
        0.667    0.00141356
        0.668    0.00136354
        0.669    0.00143413
         0.67    0.00124209
        0.671     0.0016242
        0.672    0.00133396
        0.673    0.00133429
        0.674    0.00133116
        0.675    0.00128145
        0.676    0.00135167
        0.677    0.00116075
        0.678    0.00154075
        0.679    0.00125203
         0.68    0.00125239
        0.681    0.00124929
        0.682    0.00120035
        0.683    0.00126965
        0.684    0.00108081
        0.685     0.0014564
        0.686    0.00117087
        0.687    0.00117123
        0.688    0.00116816
        0.689    0.00111983
         0.69    0.00118769
        0.691    0.00100253
        0.692    0.00137057
        0.693    0.00109049
        0.694    0.00109082
        0.695    0.00108776
        0.696    0.00103984
        0.697    0.00110709
        0.698   0.000923585
        0.699    0.00128829
          0.7    0.00101062
        0.701    0.00101096
        0.702    0.00100793
        0.703   0.000960651
        0.704     0.0010268
        0.705   0.000845989
        0.706    0.00120509
        0.707   0.000931459
        0.708   0.000931785
        0.709   0.000928767
         0.71   0.000882002
        0.711   0.000947712
        0.712   0.000767919
        0.713    0.00112491
        0.714   0.000852682
        0.715   0.000853005
        0.716   0.000850071
        0.717   0.000804305
        0.718   0.000867694
        0.719   0.000693469
         0.72    0.00103874
        0.721   0.000774953
        0.722    0.00077521
        0.723   0.000772245
        0.724   0.000726581
        0.725   0.000790408
        0.726   0.000615255
        0.727   0.000962655
        0.728   0.000697332
        0.729   0.000697654
         0.73   0.000694742
        0.731       0.00065
        0.732   0.000711696
        0.733   0.000472649
        0.734   0.000653968
        0.735   0.000529072
        0.736   0.000759284
        0.737   0.000603112
        0.738   0.000530099
        0.739   0.000652353
         0.74   0.000356508
        0.741   0.000579528
        0.742   0.000450384
        0.743   0.000689629
        0.744   0.000526684
        0.745    0.00045578
        0.746   0.000573857
        0.747   0.000287265
        0.748    0.00050339
        0.749   0.000376346
         0.75   0.000611502
        0.751   0.000451289
        0.752   0.000381269
        0.753   0.000497684
        0.754   0.000214911
        0.755   0.000428031
        0.756   0.000302687
        0.757   0.000534498
        0.758   0.000376438
        0.759    0.00030736
         0.76   0.000421983
        0.761    0.00014328
        0.762   0.000353213
        0.763   0.000229562
        0.764   0.000458024
        0.765   0.000302126
        0.766   0.000233958
        0.767   0.000346869
        0.768   7.20963e-05
        0.769   0.000278927
         0.77   0.000156931
        0.771   0.000382117
        0.772   0.000228329
        0.773   0.000161052
        0.774   0.000272236
        0.775   1.36965e-06
        0.776   0.000205151
        0.777   8.49336e-05
        0.778   0.000306508
        0.779   0.000155052
         0.78   8.85942e-05
        0.781   0.000198222
        0.782  -6.90956e-05
        0.783   0.000131881
        0.784   1.30952e-05
        0.785   0.000231912
        0.786   8.22256e-05
        0.787   1.66634e-05
        0.788   0.000124572
        0.789  -0.000138854
         0.79   5.90798e-05
        0.791  -5.81316e-05
        0.792   0.000157557
        0.793   9.88566e-06
        0.794  -5.48456e-05
        0.795   5.14744e-05
        0.796  -0.000208339
        0.797  -1.32481e-05
        0.798  -0.000128932
        0.799    8.3724e-05
          0.8  -6.19988e-05
        0.801  -0.000125908
        0.802  -2.11613e-05
        0.803  -0.000277407
        0.804  -8.51218e-05
        0.805  -0.000199308
        0.806   1.03865e-05
        0.807  -0.000133441
        0.808  -0.000196532
        0.809  -9.33627e-05
         0.81  -0.000346012
        0.811  -0.000156555
        0.812  -0.000269253
        0.813  -6.25217e-05
        0.814  -0.000204441
        0.815  -0.000266756
        0.816  -0.000165057
        0.817  -0.000414388
        0.818   -0.00022755
        0.819  -0.000338819
         0.82  -0.000134927
        0.821  -0.000275028
        0.822  -0.000336565
        0.823  -0.000236351
        0.824  -0.000482321
        0.825   -0.00029813
        0.826  -0.000407984
        0.827  -0.000206911
        0.828  -0.000345196
        0.829  -0.000405994
         0.83  -0.000307192
        0.831  -0.000549955
        0.832  -0.000368298
        0.833  -0.000476767
        0.834  -0.000278447
        0.835  -0.000414965
        0.836  -0.000475033
        0.837  -0.000377628
        0.838  -0.000617229
        0.839  -0.000438059
         0.84  -0.000545187
        0.841  -0.000349543
        0.842  -0.000484351
        0.843  -0.000543683
        0.844  -0.000447686
        0.845  -0.000684107
        0.846  -0.000507444
        0.847  -0.000613232
        0.848   -0.00042024
        0.849  -0.000553355
         0.85  -0.000611964
        0.851  -0.000517353
        0.852  -0.000750632
        0.853  -0.000576451
        0.854  -0.000680914
        0.855  -0.000490565
        0.856  -0.000621989
        0.857  -0.000679887
        0.858  -0.000586645
        0.859  -0.000816835
         0.86  -0.000645084
        0.861  -0.000748264
        0.862   -0.00056048
        0.863  -0.000690251
        0.864  -0.000747493
        0.865  -0.000655499
        0.866  -0.000882859
        0.867  -0.000713355
        0.868  -0.000815283
        0.869  -0.000629991
         0.87  -0.000758174
        0.871  -0.000814733
        0.872  -0.000724049
        0.873  -0.000948456
        0.874  -0.000781279
        0.875  -0.000881968
        0.876  -0.000699145
        0.877  -0.000825703
        0.878  -0.000882002
        0.879  -0.000791782
         0.88   -0.00101465
        0.881  -0.000848818
        0.882   -0.00094841
        0.883  -0.000767767
        0.884  -0.000892995
        0.885  -0.000948456
        0.886  -0.000859922
        0.887   -0.00107905
        0.888    -0.0009161
        0.889   -0.00101441
         0.89   -0.00083633
        0.891  -0.000959861
        0.892   -0.00101487
        0.893  -0.000927068
        0.894   -0.00114476
        0.895   -0.00098297
        0.896   -0.00108025
        0.897  -0.000904219
        0.898   -0.00102647
        0.899   -0.00108082
          0.9  -0.000994286
        0.901   -0.00120914
        0.902   -0.00104958
        0.903   -0.00114571
        0.904  -0.000971973
        0.905   -0.00109276
        0.906    -0.0011465
        0.907   -0.00106113
        0.908   -0.00127336
        0.909   -0.00111588
         0.91   -0.00121088
        0.911   -0.00103939
        0.912   -0.00115879
        0.913   -0.00121177
        0.914   -0.00112793
        0.915   -0.00133674
        0.916   -0.00118191
        0.917   -0.00127572
        0.918   -0.00110661
        0.919   -0.00122443
         0.92   -0.00127701
        0.921   -0.00119387
        0.922   -0.00140107
        0.923   -0.00124758
        0.924   -0.00134063
        0.925   -0.00117306
        0.926   -0.00128985
        0.927   -0.00134182
        0.928   -0.00125983
        0.929   -0.00146454
         0.93     -0.001313
        0.931   -0.00140498
        0.932   -0.00123953
        0.933   -0.00135499
        0.934   -0.00140635
        0.935   -0.00132554
        0.936   -0.00152754
        0.937   -0.00137815
        0.938   -0.00146906
        0.939   -0.00130575
         0.94   -0.00141985
        0.941    -0.0014709
        0.942   -0.00139065
        0.943   -0.00159096
        0.944     -0.001443
        0.945   -0.00153294
        0.946   -0.00137156
        0.947   -0.00148444
        0.948   -0.00153493
        0.949   -0.00145581
         0.95   -0.00165359
        0.951   -0.00150761
        0.952   -0.00159653
        0.953    -0.0014372
        0.954   -0.00154878
        0.955   -0.00159872
        0.956   -0.00152064
        0.957   -0.00171609
        0.958   -0.00157196
        0.959   -0.00165989
         0.96   -0.00150255
        0.961   -0.00161286
        0.962   -0.00166227
        0.963   -0.00158522
        0.964   -0.00177839
        0.965   -0.00163606
        0.966   -0.00172302
        0.967   -0.00156763
        0.968    -0.0016767
        0.969   -0.00172566
         0.97   -0.00164938
        0.971   -0.00184082
        0.972   -0.00169991
        0.973   -0.00178618
        0.974   -0.00163194
        0.975   -0.00174034
        0.976   -0.00178868
        0.977   -0.00171361
        0.978   -0.00190237
        0.979   -0.00176354
         0.98   -0.00184883
        0.981   -0.00169658
        0.982   -0.00180371
        0.983   -0.00185154
        0.984   -0.00177744
        0.985   -0.00196405
        0.986   -0.00182694
        0.987   -0.00191128
        0.988   -0.00176092
        0.989   -0.00186686
         0.99   -0.00191416
        0.991   -0.00184111
        0.992   -0.00202538
        0.993   -0.00189011
        0.994   -0.00197352
        0.995   -0.00182504
        0.996   -0.00192978
        0.997   -0.00197665
        0.998   -0.00190436
        0.999     -0.002087
            1   -0.00195304
        1.001   -0.00203565
        1.002   -0.00188891
        1.003   -0.00199252
        1.004   -0.00203883
        1.005    -0.0019678
        1.006   -0.00214753
        1.007   -0.00201581
        1.008   -0.00209744
        1.009   -0.00195267
         1.01   -0.00205502
        1.011   -0.00210087
        1.012   -0.00203072
        1.013   -0.00220851
        1.014   -0.00207833
        1.015   -0.00215911
        1.016   -0.00201606
        1.017   -0.00211733
        1.018    -0.0021627
        1.019   -0.00209352
         1.02   -0.00226913
        1.021   -0.00214067
        1.022   -0.00222064
        1.023    -0.0020791
        1.024   -0.00217946
        1.025   -0.00222429
        1.026   -0.00215618
        1.027   -0.00232943
        1.028   -0.00220282
        1.029   -0.00228189
         1.03   -0.00214216
        1.031   -0.00224137
        1.032   -0.00228576
        1.033    -0.0022185
        1.034   -0.00238989
        1.035   -0.00226476
        1.036     -0.002343
        1.037   -0.00220497
        1.038    -0.0023031
        1.039   -0.00234703
         1.04   -0.00228051
        1.041    -0.0024507
        1.042    -0.0023265
        1.043   -0.00240399
        1.044   -0.00226746
        1.045   -0.00236465
        1.046   -0.00240814
        1.047   -0.00234249
        1.048   -0.00251074
        1.049   -0.00238808
         1.05   -0.00246476
        1.051   -0.00232987
        1.052   -0.00242603
        1.053   -0.00246906
        1.054   -0.00240431
        1.055    -0.0025706
        1.056    -0.0024495
        1.057   -0.00252536
        1.058   -0.00239221
        1.059   -0.00248726
         1.06   -0.00252978
        1.061   -0.00246606
        1.062   -0.00263008
        1.063   -0.00251075
        1.064   -0.00258578
        1.065   -0.00245434
        1.066    -0.0025483
        1.067   -0.00259056
        1.068   -0.00252718
        1.069   -0.00269029