# Probe 0 (0.5 0.5 0.05)
#       Probe             0
#        Time
        0.001             (-0.0027331 1.94231e-05 0)
        0.002             (-0.00400118 2.9277e-05 0)
        0.003             (-0.00499244 3.63626e-05 0)
        0.004             (-0.00582263 4.25779e-05 0)
        0.005             (-0.00655231 4.82391e-05 0)
        0.006             (-0.00721153 5.35457e-05 0)
        0.007             (-0.00781744 5.85563e-05 0)
        0.008             (-0.0083817 6.33603e-05 0)
        0.009             (-0.00891184 6.80218e-05 0)
         0.01             (-0.00941373 7.25613e-05 0)
        0.011             (-0.0098914 7.70164e-05 0)
        0.012             (-0.0103483 8.13692e-05 0)
        0.013             (-0.0107868 8.58289e-05 0)
        0.014             (-0.0112092 9.01174e-05 0)
        0.015             (-0.0116172 9.43882e-05 0)
        0.016             (-0.0120121 9.86937e-05 0)
        0.017             (-0.0123954 0.000102895 0)
        0.018             (-0.0127679 0.00010713 0)
        0.019             (-0.0131306 0.000111343 0)
         0.02             (-0.0134841 0.000115643 0)
        0.021             (-0.0138293 0.000119885 0)
        0.022             (-0.0141668 0.000124145 0)
        0.023             (-0.0144969 0.000128445 0)
        0.024             (-0.0148203 0.000132717 0)
        0.025             (-0.0151373 0.000137027 0)
        0.026             (-0.0154484 0.000141346 0)
        0.027             (-0.0157538 0.000145737 0)
        0.028             (-0.0160539 0.000150113 0)
        0.029             (-0.0163488 0.000154515 0)
         0.03             (-0.016639 0.000158965 0)
        0.031             (-0.0169246 0.000163411 0)
        0.032             (-0.0172059 0.0001679 0)
        0.033             (-0.0174832 0.000172411 0)
        0.034             (-0.0177564 0.000176987 0)
        0.035             (-0.018026 0.000181568 0)
        0.036             (-0.0182919 0.000186183 0)
        0.037             (-0.0185544 0.000190846 0)
        0.038             (-0.0188136 0.000195519 0)
        0.039             (-0.0190697 0.000200236 0)
         0.04             (-0.0193226 0.000204982 0)
        0.041             (-0.0195727 0.000209786 0)
        0.042             (-0.0198199 0.00021461 0)
        0.043             (-0.0200644 0.000219466 0)
        0.044             (-0.0203062 0.000224369 0)
        0.045             (-0.0205455 0.000229282 0)
        0.046             (-0.0207823 0.000234278 0)
        0.047             (-0.0210167 0.000239277 0)
        0.048             (-0.0212489 0.000244319 0)
        0.049             (-0.0214788 0.000249398 0)
         0.05             (-0.0217066 0.000254513 0)
        0.051             (-0.0219322 0.000259669 0)
        0.052             (-0.0221559 0.000264855 0)
        0.053             (-0.0223775 0.000270094 0)
        0.054             (-0.0225972 0.000275344 0)
        0.055             (-0.0228151 0.000280649 0)
        0.056             (-0.0230311 0.000285983 0)
        0.057             (-0.0232454 0.000291374 0)
        0.058             (-0.0234579 0.000296788 0)
        0.059             (-0.0236686 0.000302235 0)
         0.06             (-0.0238777 0.000307727 0)
        0.061             (-0.0240851 0.000313243 0)
        0.062             (-0.024291 0.000318822 0)
        0.063             (-0.0244954 0.00032442 0)
        0.064             (-0.0246983 0.000330059 0)
        0.065             (-0.0248998 0.000335738 0)
        0.066             (-0.0250998 0.00034145 0)
        0.067             (-0.0252985 0.000347214 0)
        0.068             (-0.0254959 0.000352991 0)
        0.069             (-0.0256919 0.000358821 0)
         0.07             (-0.0258866 0.000364683 0)
        0.071             (-0.0260801 0.000370598 0)
        0.072             (-0.0262723 0.000376539 0)
        0.073             (-0.0264633 0.000382519 0)
        0.074             (-0.0266531 0.000388541 0)
        0.075             (-0.0268418 0.000394591 0)
        0.076             (-0.0270293 0.000400696 0)
        0.077             (-0.0272158 0.000406825 0)
        0.078             (-0.0274011 0.000412995 0)
        0.079             (-0.0275853 0.000419202 0)
         0.08             (-0.0277685 0.000425444 0)
        0.081             (-0.0279507 0.000431733 0)
        0.082             (-0.0281319 0.000438042 0)
        0.083             (-0.028312 0.000444399 0)
        0.084             (-0.0284911 0.000450782 0)
        0.085             (-0.0286693 0.000457213 0)
        0.086             (-0.0288465 0.000463673 0)
        0.087             (-0.0290228 0.000470171 0)
        0.088             (-0.0291982 0.00047671 0)
        0.089             (-0.0293727 0.000483275 0)
         0.09             (-0.0295463 0.000489896 0)
        0.091             (-0.029719 0.00049654 0)
        0.092             (-0.0298909 0.000503222 0)
        0.093             (-0.030062 0.000509944 0)
        0.094             (-0.0302322 0.000516697 0)
        0.095             (-0.0304016 0.000523496 0)
        0.096             (-0.0305703 0.000530316 0)
        0.097             (-0.0307381 0.00053718 0)
        0.098             (-0.0309051 0.000544078 0)
        0.099             (-0.0310714 0.000551021 0)
          0.1             (-0.031237 0.000557993 0)
        0.101             (-0.0314018 0.000565001 0)
        0.102             (-0.0315659 0.000572049 0)
        0.103             (-0.0317292 0.000579124 0)
        0.104             (-0.0318919 0.00058625 0)
        0.105             (-0.0320538 0.0005934 0)
        0.106             (-0.0322151 0.000600588 0)
        0.107             (-0.0323757 0.000607813 0)
        0.108             (-0.0325356 0.000615069 0)
        0.109             (-0.0326948 0.000622369 0)
         0.11             (-0.0328534 0.000629691 0)
        0.111             (-0.0330114 0.000637055 0)
        0.112             (-0.0331687 0.000644452 0)
        0.113             (-0.0333254 0.000651892 0)
        0.114             (-0.0334815 0.00065936 0)
        0.115             (-0.033637 0.000666864 0)
        0.116             (-0.0337919 0.000674405 0)
        0.117             (-0.0339462 0.000681975 0)
        0.118             (-0.0340999 0.00068959 0)
        0.119             (-0.034253 0.000697232 0)
         0.12             (-0.0344052 0.000704895 0)
        0.121             (-0.0345569 0.000712595 0)
        0.122             (-0.0347081 0.000720327 0)
        0.123             (-0.0348587 0.000728099 0)
        0.124             (-0.0350088 0.000735894 0)
        0.125             (-0.0351583 0.00074373 0)
        0.126             (-0.0353073 0.000751597 0)
        0.127             (-0.0354558 0.000759505 0)
        0.128             (-0.0356037 0.00076744 0)
        0.129             (-0.0357512 0.000775411 0)
         0.13             (-0.0358982 0.000783417 0)
        0.131             (-0.0360446 0.000791452 0)
        0.132             (-0.0361906 0.00079953 0)
        0.133             (-0.0363361 0.000807633 0)
        0.134             (-0.0364811 0.000815772 0)
        0.135             (-0.0366256 0.000823944 0)
        0.136             (-0.0367696 0.000832148 0)
        0.137             (-0.0369132 0.000840389 0)
        0.138             (-0.0370563 0.000848656 0)
        0.139             (-0.037199 0.00085696 0)
         0.14             (-0.0373412 0.000865295 0)
        0.141             (-0.037483 0.00087367 0)
        0.142             (-0.0376243 0.000882065 0)
        0.143             (-0.0377652 0.0008905 0)
        0.144             (-0.0379057 0.000898966 0)
        0.145             (-0.0380457 0.00090747 0)
        0.146             (-0.0381853 0.000916002 0)
        0.147             (-0.0383245 0.000924566 0)
        0.148             (-0.0384633 0.000933165 0)
        0.149             (-0.0386017 0.000941792 0)
         0.15             (-0.0387396 0.000950459 0)
        0.151             (-0.0388772 0.000959151 0)
        0.152             (-0.0390143 0.000967877 0)
        0.153             (-0.0391511 0.000976635 0)
        0.154             (-0.0392875 0.000985424 0)
        0.155             (-0.0394235 0.000994247 0)
        0.156             (-0.0395591 0.0010031 0)
        0.157             (-0.0396943 0.00101199 0)
        0.158             (-0.0398291 0.0010209 0)
        0.159             (-0.0399636 0.00102985 0)
         0.16             (-0.0400977 0.00103883 0)
        0.161             (-0.0402314 0.00104784 0)
        0.162             (-0.0403648 0.00105688 0)
        0.163             (-0.0404978 0.00106595 0)
        0.164             (-0.0406305 0.00107506 0)
        0.165             (-0.0407628 0.0010842 0)
        0.166             (-0.0408946 0.00109334 0)
        0.167             (-0.0410262 0.00110251 0)
        0.168             (-0.0411573 0.00111172 0)
        0.169             (-0.0412882 0.00112096 0)
         0.17             (-0.0414187 0.00113023 0)
        0.171             (-0.0415488 0.00113953 0)
        0.172             (-0.0416787 0.00114887 0)
        0.173             (-0.0418082 0.00115823 0)
        0.174             (-0.0419374 0.00116762 0)
        0.175             (-0.0420662 0.00117704 0)
        0.176             (-0.0421948 0.0011865 0)
        0.177             (-0.042323 0.00119598 0)
        0.178             (-0.0424509 0.00120549 0)
        0.179             (-0.0425785 0.00121504 0)
         0.18             (-0.0427058 0.00122461 0)
        0.181             (-0.0428328 0.00123421 0)
        0.182             (-0.0429594 0.00124384 0)
        0.183             (-0.0430858 0.00125351 0)
        0.184             (-0.0432119 0.0012632 0)
        0.185             (-0.0433376 0.00127293 0)
        0.186             (-0.0434631 0.00128268 0)
        0.187             (-0.0435883 0.00129246 0)
        0.188             (-0.0437132 0.00130227 0)
        0.189             (-0.0438378 0.00131211 0)
         0.19             (-0.0439621 0.00132199 0)
        0.191             (-0.0440862 0.00133189 0)
        0.192             (-0.0442099 0.00134182 0)
        0.193             (-0.0443334 0.00135178 0)
        0.194             (-0.0444566 0.00136176 0)
        0.195             (-0.0445795 0.00137178 0)
        0.196             (-0.0447022 0.00138183 0)
        0.197             (-0.0448245 0.0013919 0)
        0.198             (-0.0449466 0.00140201 0)
        0.199             (-0.0450685 0.00141214 0)
          0.2             (-0.0451901 0.0014223 0)
        0.201             (-0.0453114 0.00143249 0)
        0.202             (-0.0454324 0.00144271 0)
        0.203             (-0.0455532 0.00145296 0)
        0.204             (-0.0456737 0.00146324 0)
        0.205             (-0.045794 0.00147354 0)
        0.206             (-0.045914 0.00148387 0)
        0.207             (-0.0460338 0.00149424 0)
        0.208             (-0.0461533 0.00150463 0)
        0.209             (-0.0462726 0.00151504 0)
         0.21             (-0.0463916 0.00152549 0)
        0.211             (-0.0465104 0.00153597 0)
        0.212             (-0.046629 0.00154647 0)
        0.213             (-0.0467473 0.001557 0)
        0.214             (-0.0468653 0.00156756 0)
        0.215             (-0.0469831 0.00157814 0)
        0.216             (-0.0471007 0.00158876 0)
        0.217             (-0.0472181 0.0015994 0)
        0.218             (-0.0473352 0.00161007 0)
        0.219             (-0.0474521 0.00162077 0)
         0.22             (-0.0475687 0.00163149 0)
        0.221             (-0.0476852 0.00164225 0)
        0.222             (-0.0478014 0.00165303 0)
        0.223             (-0.0479173 0.00166384 0)
        0.224             (-0.0480331 0.00167467 0)
        0.225             (-0.0481486 0.00168554 0)
        0.226             (-0.0482639 0.00169642 0)
        0.227             (-0.048379 0.00170734 0)
        0.228             (-0.0484938 0.00171829 0)
        0.229             (-0.0486085 0.00172926 0)
         0.23             (-0.0487229 0.00174026 0)
        0.231             (-0.0488371 0.00175128 0)
        0.232             (-0.0489512 0.00176234 0)
        0.233             (-0.0490649 0.00177342 0)
        0.234             (-0.0491785 0.00178452 0)
        0.235             (-0.0492919 0.00179566 0)
        0.236             (-0.0494051 0.00180682 0)
        0.237             (-0.049518 0.00181801 0)
        0.238             (-0.0496308 0.00182922 0)
        0.239             (-0.0497433 0.00184046 0)
         0.24             (-0.0498557 0.00185173 0)
        0.241             (-0.0499678 0.00186302 0)
        0.242             (-0.0500798 0.00187434 0)
        0.243             (-0.0501916 0.00188569 0)
        0.244             (-0.0503031 0.00189706 0)
        0.245             (-0.0504145 0.00190846 0)
        0.246             (-0.0505256 0.00191989 0)
        0.247             (-0.0506366 0.00193134 0)
        0.248             (-0.050747 0.00194279 0)
        0.249             (-0.0508572 0.00195427 0)
         0.25             (-0.0509672 0.00196577 0)
        0.251             (-0.051077 0.00197731 0)
        0.252             (-0.0511866 0.00198886 0)
        0.253             (-0.0512961 0.00200045 0)
        0.254             (-0.0514054 0.00201206 0)
        0.255             (-0.0515144 0.00202369 0)
        0.256             (-0.0516233 0.00203535 0)
        0.257             (-0.0517321 0.00204703 0)
        0.258             (-0.0518406 0.00205875 0)
        0.259             (-0.051949 0.00207048 0)
         0.26             (-0.0520572 0.00208225 0)
        0.261             (-0.0521652 0.00209404 0)
        0.262             (-0.052273 0.00210585 0)
        0.263             (-0.0523807 0.00211769 0)
        0.264             (-0.0524882 0.00212955 0)
        0.265             (-0.0525955 0.00214144 0)
        0.266             (-0.0527026 0.00215336 0)
        0.267             (-0.0528096 0.0021653 0)
        0.268             (-0.0529164 0.00217726 0)
        0.269             (-0.0530231 0.00218925 0)
         0.27             (-0.0531295 0.00220127 0)
        0.271             (-0.0532358 0.00221331 0)
        0.272             (-0.053342 0.00222537 0)
        0.273             (-0.053448 0.00223746 0)
        0.274             (-0.0535538 0.00224958 0)
        0.275             (-0.0536594 0.00226172 0)
        0.276             (-0.0537649 0.00227388 0)
        0.277             (-0.0538702 0.00228607 0)
        0.278             (-0.0539754 0.00229829 0)
        0.279             (-0.0540804 0.00231053 0)
         0.28             (-0.0541852 0.00232279 0)
        0.281             (-0.0542899 0.00233508 0)
        0.282             (-0.0543944 0.00234739 0)
        0.283             (-0.0544988 0.00235973 0)
        0.284             (-0.054603 0.00237209 0)
        0.285             (-0.0547071 0.00238448 0)
        0.286             (-0.054811 0.00239689 0)
        0.287             (-0.0549147 0.00240933 0)
        0.288             (-0.0550183 0.00242178 0)
        0.289             (-0.0551218 0.00243427 0)
         0.29             (-0.0552251 0.00244678 0)
        0.291             (-0.0553282 0.00245931 0)
        0.292             (-0.0554312 0.00247186 0)
        0.293             (-0.0555341 0.00248444 0)
        0.294             (-0.0556368 0.00249705 0)
        0.295             (-0.0557393 0.00250968 0)
        0.296             (-0.0558417 0.00252233 0)
        0.297             (-0.055944 0.002535 0)
        0.298             (-0.0560461 0.0025477 0)
        0.299             (-0.0561481 0.00256043 0)
          0.3             (-0.0562499 0.00257317 0)
        0.301             (-0.0563516 0.00258595 0)
        0.302             (-0.0564531 0.00259874 0)
        0.303             (-0.0565546 0.00261156 0)
        0.304             (-0.0566558 0.0026244 0)
        0.305             (-0.0567569 0.00263727 0)
        0.306             (-0.0568579 0.00265016 0)
        0.307             (-0.0569588 0.00266307 0)
        0.308             (-0.0570595 0.00267601 0)
        0.309             (-0.05716 0.00268897 0)
         0.31             (-0.0572605 0.00270196 0)
        0.311             (-0.0573608 0.00271496 0)
        0.312             (-0.0574609 0.002728 0)
        0.313             (-0.057561 0.00274105 0)
        0.314             (-0.0576608 0.00275412 0)
        0.315             (-0.0577606 0.00276722 0)
        0.316             (-0.0578602 0.00278035 0)
        0.317             (-0.0579597 0.00279349 0)
        0.318             (-0.0580591 0.00280666 0)
        0.319             (-0.0581583 0.00281986 0)
         0.32             (-0.0582574 0.00283308 0)
        0.321             (-0.0583564 0.00284631 0)
        0.322             (-0.0584552 0.00285957 0)
        0.323             (-0.0585539 0.00287286 0)
        0.324             (-0.0586525 0.00288617 0)
        0.325             (-0.058751 0.0028995 0)
        0.326             (-0.0588493 0.00291285 0)
        0.327             (-0.0589475 0.00292623 0)
        0.328             (-0.0590456 0.00293963 0)
        0.329             (-0.0591436 0.00295305 0)
         0.33             (-0.0592414 0.0029665 0)
        0.331             (-0.0593391 0.00297996 0)
        0.332             (-0.0594367 0.00299345 0)
        0.333             (-0.0595341 0.00300697 0)
        0.334             (-0.0596315 0.0030205 0)
        0.335             (-0.0597287 0.00303406 0)
        0.336             (-0.0598258 0.00304764 0)
        0.337             (-0.0599227 0.00306124 0)
        0.338             (-0.0600196 0.00307487 0)
        0.339             (-0.0601163 0.00308851 0)
         0.34             (-0.060213 0.00310218 0)
        0.341             (-0.0603093 0.00311581 0)
        0.342             (-0.0604056 0.00312947 0)
        0.343             (-0.0605017 0.00314314 0)
        0.344             (-0.0605977 0.00315684 0)
        0.345             (-0.0606936 0.00317056 0)
        0.346             (-0.0607894 0.0031843 0)
        0.347             (-0.0608851 0.00319807 0)
        0.348             (-0.0609806 0.00321185 0)
        0.349             (-0.061076 0.00322566 0)
         0.35             (-0.0611714 0.00323949 0)
        0.351             (-0.0612666 0.00325335 0)
        0.352             (-0.0613617 0.00326722 0)
        0.353             (-0.0614567 0.00328112 0)
        0.354             (-0.0615516 0.00329503 0)
        0.355             (-0.0616463 0.00330898 0)
        0.356             (-0.061741 0.00332294 0)
        0.357             (-0.0618355 0.00333692 0)
        0.358             (-0.06193 0.00335093 0)
        0.359             (-0.0620243 0.00336496 0)
         0.36             (-0.0621185 0.003379 0)
        0.361             (-0.0622126 0.00339307 0)
        0.362             (-0.0623066 0.00340717 0)
        0.363             (-0.0624005 0.00342128 0)
        0.364             (-0.0624943 0.00343542 0)
        0.365             (-0.062588 0.00344958 0)
        0.366             (-0.0626816 0.00346375 0)
        0.367             (-0.062775 0.00347795 0)
        0.368             (-0.0628684 0.00349217 0)
        0.369             (-0.0629617 0.00350642 0)
         0.37             (-0.0630548 0.00352068 0)
        0.371             (-0.0631479 0.00353497 0)
        0.372             (-0.0632408 0.00354928 0)
        0.373             (-0.0633337 0.0035636 0)
        0.374             (-0.0634264 0.00357795 0)
        0.375             (-0.0635191 0.00359232 0)
        0.376             (-0.0636116 0.00360672 0)
        0.377             (-0.0637041 0.00362113 0)
        0.378             (-0.0637964 0.00363556 0)
        0.379             (-0.0638886 0.00365002 0)
         0.38             (-0.0639808 0.00366449 0)
        0.381             (-0.0640728 0.00367899 0)
        0.382             (-0.0641648 0.00369351 0)
        0.383             (-0.0642566 0.00370805 0)
        0.384             (-0.0643483 0.00372261 0)
        0.385             (-0.06444 0.00373719 0)
        0.386             (-0.0645315 0.00375179 0)
        0.387             (-0.064623 0.00376642 0)
        0.388             (-0.0647143 0.00378106 0)
        0.389             (-0.0648056 0.00379572 0)
         0.39             (-0.0648967 0.00381041 0)
        0.391             (-0.0649878 0.00382512 0)
        0.392             (-0.0650788 0.00383984 0)
        0.393             (-0.0651696 0.00385459 0)
        0.394             (-0.0652604 0.00386936 0)
        0.395             (-0.0653511 0.00388415 0)
        0.396             (-0.0654417 0.00389895 0)
        0.397             (-0.0655322 0.00391379 0)
        0.398             (-0.0656226 0.00392864 0)
        0.399             (-0.0657129 0.00394351 0)
          0.4             (-0.0658031 0.0039584 0)
        0.401             (-0.0658933 0.00397331 0)
        0.402             (-0.0659833 0.00398824 0)
        0.403             (-0.0660732 0.00400319 0)
        0.404             (-0.0661631 0.00401817 0)
        0.405             (-0.0662529 0.00403316 0)
        0.406             (-0.0663425 0.00404818 0)
        0.407             (-0.0664321 0.00406321 0)
        0.408             (-0.0665216 0.00407826 0)
        0.409             (-0.066611 0.00409334 0)
         0.41             (-0.0667003 0.00410843 0)
        0.411             (-0.0667896 0.00412355 0)
        0.412             (-0.0668787 0.00413868 0)
        0.413             (-0.0669677 0.00415384 0)
        0.414             (-0.0670567 0.00416902 0)
        0.415             (-0.0671456 0.00418421 0)
        0.416             (-0.0672344 0.00419943 0)
        0.417             (-0.0673231 0.00421466 0)
        0.418             (-0.0674117 0.00422992 0)
        0.419             (-0.0675002 0.00424519 0)
         0.42             (-0.0675887 0.00426049 0)
        0.421             (-0.067677 0.0042758 0)
        0.422             (-0.0677653 0.00429114 0)
        0.423             (-0.0678535 0.00430649 0)
        0.424             (-0.0679416 0.00432187 0)
        0.425             (-0.0680296 0.00433726 0)
        0.426             (-0.0681175 0.00435268 0)
        0.427             (-0.0682054 0.00436811 0)
        0.428             (-0.0682932 0.00438357 0)
        0.429             (-0.0683809 0.00439904 0)
         0.43             (-0.0684685 0.00441453 0)
        0.431             (-0.068556 0.00443005 0)
        0.432             (-0.0686434 0.00444558 0)
        0.433             (-0.0687308 0.00446113 0)
        0.434             (-0.0688181 0.00447671 0)
        0.435             (-0.0689053 0.0044923 0)
        0.436             (-0.0689924 0.00450791 0)
        0.437             (-0.0690794 0.00452354 0)
        0.438             (-0.0691664 0.00453919 0)
        0.439             (-0.0692532 0.00455486 0)
         0.44             (-0.06934 0.00457055 0)
        0.441             (-0.0694268 0.00458626 0)
        0.442             (-0.0695134 0.00460199 0)
        0.443             (-0.0696 0.00461773 0)
        0.444             (-0.0696864 0.0046335 0)
        0.445             (-0.0697728 0.00464929 0)
        0.446             (-0.0698592 0.00466509 0)
        0.447             (-0.0699454 0.00468092 0)
        0.448             (-0.0700316 0.00469676 0)
        0.449             (-0.0701177 0.00471263 0)
         0.45             (-0.0702037 0.00472851 0)
        0.451             (-0.0702896 0.00474441 0)
        0.452             (-0.0703755 0.00476033 0)
        0.453             (-0.0704613 0.00477627 0)
        0.454             (-0.070547 0.00479223 0)
        0.455             (-0.0706326 0.00480821 0)
        0.456             (-0.0707182 0.0048242 0)
        0.457             (-0.0708037 0.00484022 0)
        0.458             (-0.0708891 0.00485626 0)
        0.459             (-0.0709744 0.00487231 0)
         0.46             (-0.0710597 0.00488838 0)
        0.461             (-0.0711449 0.00490448 0)
        0.462             (-0.07123 0.00492059 0)
        0.463             (-0.0713151 0.00493672 0)
        0.464             (-0.0714 0.00495287 0)
        0.465             (-0.0714849 0.00496903 0)
        0.466             (-0.0715697 0.00498522 0)
        0.467             (-0.0716545 0.00500143 0)
        0.468             (-0.0717392 0.00501765 0)
        0.469             (-0.0718238 0.00503389 0)
         0.47             (-0.0719083 0.00505016 0)
        0.471             (-0.0719928 0.00506644 0)
        0.472             (-0.0720772 0.00508274 0)
        0.473             (-0.0721615 0.00509905 0)
        0.474             (-0.0722458 0.00511539 0)
        0.475             (-0.07233 0.00513175 0)
        0.476             (-0.0724141 0.00514812 0)
        0.477             (-0.0724981 0.00516452 0)
        0.478             (-0.0725821 0.00518093 0)
        0.479             (-0.072666 0.00519736 0)
         0.48             (-0.0727498 0.0052138 0)
        0.481             (-0.0728336 0.00523027 0)
        0.482             (-0.0729173 0.00524676 0)
        0.483             (-0.0730009 0.00526326 0)
        0.484             (-0.0730845 0.00527979 0)
        0.485             (-0.073168 0.00529633 0)
        0.486             (-0.0732514 0.00531289 0)
        0.487             (-0.0733348 0.00532946 0)
        0.488             (-0.0734181 0.00534606 0)
        0.489             (-0.0735013 0.00536268 0)
         0.49             (-0.0735845 0.00537931 0)
        0.491             (-0.0736675 0.00539596 0)
        0.492             (-0.0737506 0.00541263 0)
        0.493             (-0.0738335 0.00542932 0)
        0.494             (-0.0739164 0.00544602 0)
        0.495             (-0.0739993 0.00546275 0)
        0.496             (-0.074082 0.00547949 0)
        0.497             (-0.0741647 0.00549625 0)
        0.498             (-0.0742473 0.00551303 0)
        0.499             (-0.0743299 0.00552983 0)
          0.5             (-0.0744124 0.00554664 0)
        0.501             (-0.0744949 0.00556348 0)
        0.502             (-0.0745772 0.00558033 0)
        0.503             (-0.0746595 0.0055972 0)
        0.504             (-0.0747418 0.00561409 0)
        0.505             (-0.074824 0.00563099 0)
        0.506             (-0.0749061 0.00564791 0)
        0.507             (-0.0749881 0.00566486 0)
        0.508             (-0.0750701 0.00568182 0)
        0.509             (-0.0751521 0.0056988 0)
         0.51             (-0.0752339 0.00571579 0)
        0.511             (-0.0753157 0.0057328 0)
        0.512             (-0.0753975 0.00574984 0)
        0.513             (-0.0754792 0.00576689 0)
        0.514             (-0.0755608 0.00578395 0)
        0.515             (-0.0756424 0.00580104 0)
        0.516             (-0.0757239 0.00581814 0)
        0.517             (-0.0758053 0.00583526 0)
        0.518             (-0.0758867 0.0058524 0)
        0.519             (-0.075968 0.00586956 0)
         0.52             (-0.0760492 0.00588673 0)
        0.521             (-0.0761304 0.00590392 0)
        0.522             (-0.0762116 0.00592113 0)
        0.523             (-0.0762921 0.00593832 0)
        0.524             (-0.0763725 0.00595553 0)
        0.525             (-0.076453 0.00597276 0)
        0.526             (-0.0765333 0.00599 0)
        0.527             (-0.0766136 0.00600726 0)
        0.528             (-0.0766938 0.00602454 0)
        0.529             (-0.076774 0.00604184 0)
         0.53             (-0.0768541 0.00605915 0)
        0.531             (-0.0769342 0.00607648 0)
        0.532             (-0.0770142 0.00609383 0)
        0.533             (-0.0770942 0.00611119 0)
        0.534             (-0.0771741 0.00612858 0)
        0.535             (-0.0772539 0.00614598 0)
        0.536             (-0.0773337 0.00616339 0)
        0.537             (-0.0774134 0.00618083 0)
        0.538             (-0.0774931 0.00619828 0)
        0.539             (-0.0775727 0.00621575 0)
         0.54             (-0.0776523 0.00623324 0)
        0.541             (-0.0777318 0.00625074 0)
        0.542             (-0.0778112 0.00626826 0)
        0.543             (-0.0778906 0.0062858 0)
        0.544             (-0.07797 0.00630335 0)
        0.545             (-0.0780493 0.00632092 0)
        0.546             (-0.0781285 0.00633851 0)
        0.547             (-0.0782077 0.00635612 0)
        0.548             (-0.0782868 0.00637374 0)
        0.549             (-0.0783659 0.00639138 0)
         0.55             (-0.0784449 0.00640904 0)
        0.551             (-0.0785239 0.00642671 0)
        0.552             (-0.0786028 0.0064444 0)
        0.553             (-0.0786816 0.00646211 0)
        0.554             (-0.0787604 0.00647984 0)
        0.555             (-0.0788392 0.00649758 0)
        0.556             (-0.0789179 0.00651534 0)
        0.557             (-0.0789965 0.00653311 0)
        0.558             (-0.0790751 0.0065509 0)
        0.559             (-0.0791537 0.00656872 0)
         0.56             (-0.0792322 0.00658654 0)
        0.561             (-0.0793106 0.00660438 0)
        0.562             (-0.079389 0.00662224 0)
        0.563             (-0.0794673 0.00664012 0)
        0.564             (-0.0795456 0.00665801 0)
        0.565             (-0.0796238 0.00667592 0)
        0.566             (-0.079702 0.00669385 0)
        0.567             (-0.0797802 0.0067118 0)
        0.568             (-0.0798582 0.00672976 0)
        0.569             (-0.0799363 0.00674773 0)
         0.57             (-0.0800142 0.00676573 0)
        0.571             (-0.0800922 0.00678374 0)
        0.572             (-0.0801701 0.00680177 0)
        0.573             (-0.0802479 0.00681981 0)
        0.574             (-0.0803257 0.00683787 0)
        0.575             (-0.0804034 0.00685595 0)