/*--------------------------------*- C++ -*----------------------------------*\
| =========                 |                                                 |
| \\      /  F ield         | OpenFOAM: The Open Source CFD Toolbox           |
|  \\    /   O peration     | Version:  2112                                  |
|   \\  /    A nd           | Website:  www.openfoam.com                      |
|    \\/     M anipulation  |                                                 |
\*---------------------------------------------------------------------------*/
FoamFile
{
    version     2.0;
    format      ascii;
    arch        "LSB;label=32;scalar=64";
    class       volScalarField;
    location    "5.92";
    object      p;
}
// * * * * * * * * * * * * * * * * * * * * * * * * * * * * * * * * * * * * * //

dimensions      [0 2 -2 0 0 0 0];

internalField   nonuniform List<scalar> 
25600
(
-2.11288e-13
5.87731e-10
1.04613e-09
1.33556e-09
1.51946e-09
1.62932e-09
1.67215e-09
1.66558e-09
1.62785e-09
1.57465e-09
1.51973e-09
1.47419e-09
1.44573e-09
1.43836e-09
1.45281e-09
1.48742e-09
1.53894e-09
1.60341e-09
1.67675e-09
1.75509e-09
1.83501e-09
1.91361e-09
1.98846e-09
2.0576e-09
2.11948e-09
2.17286e-09
2.2168e-09
2.25046e-09
2.27355e-09
2.28573e-09
2.28679e-09
2.27671e-09
2.25562e-09
2.22372e-09
2.18132e-09
2.1288e-09
2.06661e-09
1.99525e-09
1.91526e-09
1.82721e-09
1.7317e-09
1.62934e-09
1.52073e-09
1.40647e-09
1.28718e-09
1.16344e-09
1.03581e-09
9.04856e-10
7.71102e-10
6.35053e-10
4.97192e-10
3.57974e-10
2.17828e-10
7.71569e-11
-6.36623e-11
-2.04278e-10
-3.44362e-10
-4.83614e-10
-6.21752e-10
-7.58521e-10
-8.93684e-10
-1.02703e-09
-1.15835e-09
-1.28748e-09
-1.41426e-09
-1.53854e-09
-1.6602e-09
-1.77912e-09
-1.8952e-09
-2.00836e-09
-2.11853e-09
-2.22564e-09
-2.32964e-09
-2.4305e-09
-2.52819e-09
-2.62268e-09
-2.71396e-09
-2.80203e-09
-2.88689e-09
-2.96856e-09
-3.04705e-09
-3.12238e-09
-3.19458e-09
-3.2637e-09
-3.32977e-09
-3.39283e-09
-3.45294e-09
-3.51014e-09
-3.5645e-09
-3.61608e-09
-3.66494e-09
-3.71114e-09
-3.75476e-09
-3.79587e-09
-3.83454e-09
-3.87084e-09
-3.90485e-09
-3.93666e-09
-3.96633e-09
-3.99394e-09
-4.01959e-09
-4.04334e-09
-4.06527e-09
-4.08547e-09
-4.10402e-09
-4.121e-09
-4.13647e-09
-4.15053e-09
-4.16325e-09
-4.1747e-09
-4.18496e-09
-4.1941e-09
-4.20219e-09
-4.2093e-09
-4.2155e-09
-4.22086e-09
-4.22543e-09
-4.22929e-09
-4.23248e-09
-4.23507e-09
-4.23712e-09
-4.23867e-09
-4.23978e-09
-4.2405e-09
-4.24086e-09
-4.24092e-09
-4.24072e-09
-4.24028e-09
-4.23966e-09
-4.23888e-09
-4.23797e-09
-4.23697e-09
-4.2359e-09
-4.23478e-09
-4.23363e-09
-4.23249e-09
-4.23135e-09
-4.23024e-09
-4.22918e-09
-4.22816e-09
-4.22722e-09
-4.22634e-09
-4.22554e-09
-4.22482e-09
-4.22418e-09
-4.22363e-09
-4.22316e-09
-4.22278e-09
-4.22248e-09
-4.22225e-09
-4.2221e-09
-4.22202e-09
-4.22199e-09
-4.22202e-09
-4.22209e-09
-4.22219e-09
-4.22232e-09
-4.22246e-09
-4.22261e-09
-4.22275e-09
-4.22288e-09
-4.22297e-09
-4.22302e-09
-4.22303e-09
-4.22297e-09
-4.22283e-09
-4.2226e-09
-4.22228e-09
-4.22185e-09
-4.2213e-09
-4.22062e-09
-4.21979e-09
-4.21882e-09
-4.21768e-09
-4.21637e-09
-4.21488e-09
-4.2132e-09
-4.21133e-09
-4.20926e-09
-4.20697e-09
-4.20446e-09
-4.20174e-09
-4.19878e-09
-4.19559e-09
-4.19216e-09
-4.18849e-09
-4.18457e-09
-4.1804e-09
-4.17599e-09
-4.17131e-09
-4.16639e-09
-4.16121e-09
-4.15577e-09
-4.15007e-09
-4.14412e-09
-4.13792e-09
-4.13146e-09
-4.12475e-09
-4.11779e-09
-4.11058e-09
-4.10313e-09
-4.09543e-09
-4.0875e-09
-4.07934e-09
-4.07094e-09
-4.06232e-09
-4.05348e-09
-4.04443e-09
-4.03516e-09
-4.02569e-09
-4.01601e-09
-4.00615e-09
-3.99609e-09
-3.98586e-09
-3.97544e-09
-3.96486e-09
-3.95411e-09
-3.94321e-09
-3.93215e-09
-3.92095e-09
-3.90961e-09
-3.89814e-09
-3.88654e-09
-3.87481e-09
-3.86297e-09
-3.85102e-09
-3.83897e-09
-3.82681e-09
-3.81456e-09
-3.80221e-09
-3.78978e-09
-3.77726e-09
-3.76465e-09
-3.75196e-09
-3.73919e-09
-3.72633e-09
-3.71339e-09
-3.70036e-09
-3.68724e-09
-3.67402e-09
-3.66069e-09
-3.64726e-09
-3.63369e-09
-3.61999e-09
-3.60613e-09
-3.5921e-09
-3.57787e-09
-3.56342e-09
-3.54872e-09
-3.53373e-09
-3.51842e-09
-3.50275e-09
-3.48666e-09
-3.4701e-09
-3.45301e-09
-3.43532e-09
-3.41696e-09
-3.39784e-09
-3.37786e-09
-3.35692e-09
-3.33491e-09
-3.3117e-09
-3.28714e-09
-3.26109e-09
-3.23338e-09
-3.20383e-09
-3.17223e-09
-3.13838e-09
-3.10203e-09
-3.06294e-09
-3.02085e-09
-2.97545e-09
-2.92644e-09
-2.8735e-09
-2.81629e-09
-2.75445e-09
-2.6876e-09
-2.61535e-09
-2.53731e-09
-2.45307e-09
-2.36223e-09
-2.26438e-09
-2.15913e-09
-2.0461e-09
-1.92495e-09
-1.79535e-09
-1.65702e-09
-1.50977e-09
-1.35343e-09
-1.18796e-09
-1.01339e-09
-8.2991e-10
-6.3783e-10
-4.37651e-10
-2.30081e-10
-1.60801e-11
2.03094e-10
4.25826e-10
6.50081e-10
8.73332e-10
1.09249e-09
1.30384e-09
1.50299e-09
1.68488e-09
1.8438e-09
1.97354e-09
2.0676e-09
2.11943e-09
2.12276e-09
2.07186e-09
1.96158e-09
1.78798e-09
1.55226e-09
1.25188e-09
8.9217e-10
4.87316e-10
5.88516e-11
-3.39599e-10
-5.75293e-10
-4.68737e-10
7.13334e-11
4.24657e-10
7.26139e-10
9.53042e-10
1.14077e-09
1.27671e-09
1.34969e-09
1.37325e-09
1.36519e-09
1.3406e-09
1.31302e-09
1.29359e-09
1.28991e-09
1.30582e-09
1.34187e-09
1.39621e-09
1.46555e-09
1.54592e-09
1.63331e-09
1.72399e-09
1.81469e-09
1.90266e-09
1.98564e-09
2.0618e-09
2.12973e-09
2.18829e-09
2.23666e-09
2.27432e-09
2.30064e-09
2.31548e-09
2.31878e-09
2.31057e-09
2.291e-09
2.26032e-09
2.21887e-09
2.16709e-09
2.10543e-09
2.03443e-09
1.95466e-09
1.8667e-09
1.77116e-09
1.66868e-09
1.55986e-09
1.44534e-09
1.32572e-09
1.20159e-09
1.07353e-09
9.4211e-10
8.07856e-10
6.71278e-10
5.32864e-10
3.93071e-10
2.5233e-10
1.11049e-10
-3.03943e-11
-1.71647e-10
-3.12379e-10
-4.52287e-10
-5.91092e-10
-7.28533e-10
-8.64374e-10
-9.984e-10
-1.13041e-09
-1.26024e-09
-1.38771e-09
-1.51268e-09
-1.63504e-09
-1.75465e-09
-1.87143e-09
-1.98528e-09
-2.09614e-09
-2.20395e-09
-2.30864e-09
-2.41018e-09
-2.50854e-09
-2.60371e-09
-2.69565e-09
-2.78439e-09
-2.8699e-09
-2.95221e-09
-3.03133e-09
-3.10729e-09
-3.18011e-09
-3.24983e-09
-3.3165e-09
-3.38014e-09
-3.44082e-09
-3.49859e-09
-3.55349e-09
-3.60561e-09
-3.65498e-09
-3.70169e-09
-3.74581e-09
-3.78739e-09
-3.82652e-09
-3.86327e-09
-3.89772e-09
-3.92994e-09
-3.96001e-09
-3.98802e-09
-4.01403e-09
-4.03814e-09
-4.06041e-09
-4.08094e-09
-4.0998e-09
-4.11706e-09
-4.13282e-09
-4.14714e-09
-4.16011e-09
-4.17179e-09
-4.18227e-09
-4.19161e-09
-4.1999e-09
-4.20719e-09
-4.21355e-09
-4.21906e-09
-4.22377e-09
-4.22776e-09
-4.23107e-09
-4.23377e-09
-4.23591e-09
-4.23754e-09
-4.23872e-09
-4.2395e-09
-4.23992e-09
-4.24003e-09
-4.23986e-09
-4.23946e-09
-4.23886e-09
-4.23809e-09
-4.2372e-09
-4.2362e-09
-4.23512e-09
-4.23399e-09
-4.23284e-09
-4.23168e-09
-4.23052e-09
-4.22939e-09
-4.2283e-09
-4.22726e-09
-4.22628e-09
-4.22537e-09
-4.22454e-09
-4.22378e-09
-4.22311e-09
-4.22253e-09
-4.22203e-09
-4.22161e-09
-4.22127e-09
-4.22101e-09
-4.22083e-09
-4.22071e-09
-4.22065e-09
-4.22065e-09
-4.22069e-09
-4.22077e-09
-4.22087e-09
-4.221e-09
-4.22112e-09
-4.22125e-09
-4.22136e-09
-4.22144e-09
-4.22148e-09
-4.22147e-09
-4.22141e-09
-4.22126e-09
-4.22104e-09
-4.22072e-09
-4.22029e-09
-4.21974e-09
-4.21907e-09
-4.21825e-09
-4.21729e-09
-4.21617e-09
-4.21488e-09
-4.21341e-09
-4.21175e-09
-4.2099e-09
-4.20785e-09
-4.20559e-09
-4.20311e-09
-4.20042e-09
-4.19749e-09
-4.19433e-09
-4.19094e-09
-4.1873e-09
-4.18342e-09
-4.17929e-09
-4.17491e-09
-4.17028e-09
-4.1654e-09
-4.16026e-09
-4.15486e-09
-4.14921e-09
-4.14331e-09
-4.13714e-09
-4.13073e-09
-4.12406e-09
-4.11715e-09
-4.10999e-09
-4.10258e-09
-4.09493e-09
-4.08705e-09
-4.07893e-09
-4.07058e-09
-4.06201e-09
-4.05321e-09
-4.0442e-09
-4.03498e-09
-4.02556e-09
-4.01593e-09
-4.00611e-09
-3.9961e-09
-3.98591e-09
-3.97554e-09
-3.965e-09
-3.9543e-09
-3.94344e-09
-3.93242e-09
-3.92127e-09
-3.90997e-09
-3.89854e-09
-3.88698e-09
-3.8753e-09
-3.86351e-09
-3.8516e-09
-3.83959e-09
-3.82748e-09
-3.81527e-09
-3.80297e-09
-3.79058e-09
-3.77811e-09
-3.76555e-09
-3.7529e-09
-3.74018e-09
-3.72737e-09
-3.71448e-09
-3.70151e-09
-3.68844e-09
-3.67527e-09
-3.66201e-09
-3.64863e-09
-3.63513e-09
-3.62149e-09
-3.60771e-09
-3.59375e-09
-3.5796e-09
-3.56523e-09
-3.55062e-09
-3.53573e-09
-3.52052e-09
-3.50495e-09
-3.48898e-09
-3.47255e-09
-3.4556e-09
-3.43806e-09
-3.41986e-09
-3.40092e-09
-3.38113e-09
-3.3604e-09
-3.33861e-09
-3.31565e-09
-3.29136e-09
-3.2656e-09
-3.23821e-09
-3.209e-09
-3.17778e-09
-3.14433e-09
-3.10843e-09
-3.06982e-09
-3.02823e-09
-2.98339e-09
-2.93499e-09
-2.8827e-09
-2.82619e-09
-2.76509e-09
-2.69903e-09
-2.62764e-09
-2.5505e-09
-2.46722e-09
-2.37739e-09
-2.28061e-09
-2.17648e-09
-2.06462e-09
-1.94468e-09
-1.81633e-09
-1.67931e-09
-1.53337e-09
-1.37837e-09
-1.21424e-09
-1.04102e-09
-8.58839e-10
-6.68009e-10
-4.68991e-10
-2.62454e-10
-4.93089e-11
1.69246e-10
3.91668e-10
6.16002e-10
8.39818e-10
1.06013e-09
1.27332e-09
1.47512e-09
1.66059e-09
1.82414e-09
1.95973e-09
2.0611e-09
2.12207e-09
2.13711e-09
2.10173e-09
2.01312e-09
1.87014e-09
1.67102e-09
1.42053e-09
1.1269e-09
8.05391e-10
4.70827e-10
1.38293e-10
-1.18265e-10
-1.58204e-10
1.17019e-10
3.09748e-10
4.83623e-10
6.37379e-10
8.07656e-10
9.56764e-10
1.05039e-09
1.09749e-09
1.11557e-09
1.11832e-09
1.11822e-09
1.12577e-09
1.14809e-09
1.18856e-09
1.24742e-09
1.32259e-09
1.41066e-09
1.50766e-09
1.60967e-09
1.71306e-09
1.81474e-09
1.91212e-09
2.0031e-09
2.08603e-09
2.15963e-09
2.2229e-09
2.27513e-09
2.31582e-09
2.3447e-09
2.36153e-09
2.36632e-09
2.35919e-09
2.34035e-09
2.3101e-09
2.26884e-09
2.21702e-09
2.15515e-09
2.0838e-09
2.00355e-09
1.91501e-09
1.81882e-09
1.71561e-09
1.60602e-09
1.49068e-09
1.37021e-09
1.24521e-09
1.11627e-09
9.83944e-10
8.48781e-10
7.11292e-10
5.71962e-10
4.31255e-10
2.89603e-10
1.47413e-10
5.06415e-12
-1.37088e-10
-2.78714e-10
-4.19511e-10
-5.59197e-10
-6.97514e-10
-8.34223e-10
-9.6911e-10
-1.10198e-09
-1.23265e-09
-1.36096e-09
-1.48676e-09
-1.60993e-09
-1.73036e-09
-1.84795e-09
-1.9626e-09
-2.07424e-09
-2.18282e-09
-2.28827e-09
-2.39057e-09
-2.48968e-09
-2.58557e-09
-2.67824e-09
-2.76767e-09
-2.85388e-09
-2.93687e-09
-3.01666e-09
-3.09327e-09
-3.16674e-09
-3.23708e-09
-3.30435e-09
-3.36859e-09
-3.42985e-09
-3.48818e-09
-3.54363e-09
-3.59627e-09
-3.64616e-09
-3.69337e-09
-3.73796e-09
-3.78001e-09
-3.81958e-09
-3.85676e-09
-3.89162e-09
-3.92423e-09
-3.95468e-09
-3.98304e-09
-4.0094e-09
-4.03383e-09
-4.05641e-09
-4.07723e-09
-4.09636e-09
-4.11389e-09
-4.12989e-09
-4.14444e-09
-4.15762e-09
-4.1695e-09
-4.18016e-09
-4.18967e-09
-4.19811e-09
-4.20554e-09
-4.21203e-09
-4.21766e-09
-4.22248e-09
-4.22655e-09
-4.22994e-09
-4.23271e-09
-4.23492e-09
-4.2366e-09
-4.23783e-09
-4.23864e-09
-4.23909e-09
-4.23921e-09
-4.23905e-09
-4.23865e-09
-4.23805e-09
-4.23728e-09
-4.23637e-09
-4.23536e-09
-4.23426e-09
-4.23311e-09
-4.23193e-09
-4.23074e-09
-4.22955e-09
-4.22839e-09
-4.22726e-09
-4.22618e-09
-4.22517e-09
-4.22422e-09
-4.22335e-09
-4.22255e-09
-4.22184e-09
-4.22122e-09
-4.22068e-09
-4.22023e-09
-4.21986e-09
-4.21957e-09
-4.21935e-09
-4.21921e-09
-4.21912e-09
-4.21909e-09
-4.21911e-09
-4.21917e-09
-4.21926e-09
-4.21936e-09
-4.21948e-09
-4.21959e-09
-4.21969e-09
-4.21977e-09
-4.21981e-09
-4.2198e-09
-4.21974e-09
-4.2196e-09
-4.21938e-09
-4.21907e-09
-4.21866e-09
-4.21813e-09
-4.21747e-09
-4.21667e-09
-4.21573e-09
-4.21463e-09
-4.21337e-09
-4.21193e-09
-4.2103e-09
-4.20848e-09
-4.20646e-09
-4.20424e-09
-4.2018e-09
-4.19914e-09
-4.19625e-09
-4.19313e-09
-4.18978e-09
-4.18619e-09
-4.18235e-09
-4.17826e-09
-4.17393e-09
-4.16934e-09
-4.16451e-09
-4.15941e-09
-4.15406e-09
-4.14846e-09
-4.1426e-09
-4.13649e-09
-4.13012e-09
-4.1235e-09
-4.11664e-09
-4.10952e-09
-4.10217e-09
-4.09457e-09
-4.08673e-09
-4.07866e-09
-4.07036e-09
-4.06183e-09
-4.05308e-09
-4.04412e-09
-4.03495e-09
-4.02556e-09
-4.01598e-09
-4.00621e-09
-3.99624e-09
-3.9861e-09
-3.97577e-09
-3.96528e-09
-3.95462e-09
-3.9438e-09
-3.93283e-09
-3.92172e-09
-3.91047e-09
-3.89908e-09
-3.88756e-09
-3.87593e-09
-3.86417e-09
-3.85231e-09
-3.84034e-09
-3.82828e-09
-3.81611e-09
-3.80386e-09
-3.79151e-09
-3.77908e-09
-3.76657e-09
-3.75398e-09
-3.7413e-09
-3.72855e-09
-3.71571e-09
-3.70279e-09
-3.68978e-09
-3.67668e-09
-3.66348e-09
-3.65017e-09
-3.63674e-09
-3.62318e-09
-3.60947e-09
-3.5956e-09
-3.58155e-09
-3.56729e-09
-3.55278e-09
-3.53801e-09
-3.52294e-09
-3.50752e-09
-3.4917e-09
-3.47544e-09
-3.45867e-09
-3.44134e-09
-3.42336e-09
-3.40465e-09
-3.38513e-09
-3.36469e-09
-3.34322e-09
-3.3206e-09
-3.29669e-09
-3.27134e-09
-3.2444e-09
-3.21568e-09
-3.185e-09
-3.15213e-09
-3.11686e-09
-3.07895e-09
-3.03811e-09
-2.99409e-09
-2.94656e-09
-2.89522e-09
-2.83973e-09
-2.77973e-09
-2.71486e-09
-2.64473e-09
-2.56894e-09
-2.48709e-09
-2.39879e-09
-2.30362e-09
-2.20119e-09
-2.09112e-09
-1.97304e-09
-1.84663e-09
-1.7116e-09
-1.56772e-09
-1.41481e-09
-1.25279e-09
-1.08167e-09
-9.01556e-10
-7.12718e-10
-5.15568e-10
-3.10716e-10
-9.89983e-11
1.18475e-10
3.40269e-10
5.64556e-10
7.8905e-10
1.01093e-09
1.22676e-09
1.43246e-09
1.62329e-09
1.79387e-09
1.9384e-09
2.05087e-09
2.1255e-09
2.15721e-09
2.1422e-09
2.0784e-09
1.96584e-09
1.80622e-09
1.60361e-09
1.36627e-09
1.10834e-09
8.35005e-10
5.31854e-10
2.26986e-10
5.5226e-11
1.37738e-10
2.37339e-10
3.2206e-10
4.0543e-10
5.49552e-10
7.03409e-10
8.09803e-10
8.731e-10
9.11509e-10
9.37309e-10
9.6159e-10
9.93863e-10
1.04051e-09
1.10432e-09
1.18505e-09
1.28029e-09
1.38643e-09
1.49944e-09
1.61539e-09
1.73078e-09
1.84263e-09
1.9485e-09
2.04649e-09
2.13511e-09
2.21322e-09
2.28e-09
2.33485e-09
2.37741e-09
2.40747e-09
2.42497e-09
2.42997e-09
2.42266e-09
2.40332e-09
2.37231e-09
2.33008e-09
2.27712e-09
2.21399e-09
2.14128e-09
2.05959e-09
1.96958e-09
1.87187e-09
1.76714e-09
1.65602e-09
1.53917e-09
1.41719e-09
1.29071e-09
1.16031e-09
1.02657e-09
8.90008e-10
7.51157e-10
6.10499e-10
4.68497e-10
3.25584e-10
1.82166e-10
3.86218e-11
-1.04694e-10
-2.47455e-10
-3.89357e-10
-5.3012e-10
-6.69486e-10
-8.07219e-10
-9.43105e-10
-1.07695e-09
-1.20856e-09
-1.3378e-09
-1.46451e-09
-1.58857e-09
-1.70986e-09
-1.82829e-09
-1.94376e-09
-2.0562e-09
-2.16556e-09
-2.27179e-09
-2.37483e-09
-2.47466e-09
-2.57126e-09
-2.66461e-09
-2.75472e-09
-2.84158e-09
-2.9252e-09
-3.0056e-09
-3.08281e-09
-3.15685e-09
-3.22775e-09
-3.29556e-09
-3.36032e-09
-3.42208e-09
-3.48089e-09
-3.5368e-09
-3.58989e-09
-3.64021e-09
-3.68782e-09
-3.7328e-09
-3.77522e-09
-3.81515e-09
-3.85266e-09
-3.88784e-09
-3.92075e-09
-3.95149e-09
-3.98011e-09
-4.00672e-09
-4.03139e-09
-4.05419e-09
-4.07521e-09
-4.09453e-09
-4.11223e-09
-4.12839e-09
-4.14308e-09
-4.15639e-09
-4.16839e-09
-4.17915e-09
-4.18876e-09
-4.19728e-09
-4.20478e-09
-4.21133e-09
-4.21701e-09
-4.22187e-09
-4.22597e-09
-4.22939e-09
-4.23218e-09
-4.23439e-09
-4.23607e-09
-4.23729e-09
-4.2381e-09
-4.23853e-09
-4.23863e-09
-4.23845e-09
-4.23802e-09
-4.23738e-09
-4.23658e-09
-4.23563e-09
-4.23458e-09
-4.23344e-09
-4.23225e-09
-4.23102e-09
-4.22978e-09
-4.22855e-09
-4.22734e-09
-4.22617e-09
-4.22505e-09
-4.22399e-09
-4.223e-09
-4.22209e-09
-4.22126e-09
-4.22051e-09
-4.21985e-09
-4.21928e-09
-4.2188e-09
-4.2184e-09
-4.21808e-09
-4.21785e-09
-4.21768e-09
-4.21758e-09
-4.21753e-09
-4.21754e-09
-4.21759e-09
-4.21767e-09
-4.21777e-09
-4.21788e-09
-4.218e-09
-4.2181e-09
-4.21819e-09
-4.21824e-09
-4.21824e-09
-4.21819e-09
-4.21807e-09
-4.21787e-09
-4.21758e-09
-4.21719e-09
-4.21668e-09
-4.21605e-09
-4.21529e-09
-4.21438e-09
-4.21331e-09
-4.21208e-09
-4.21067e-09
-4.20908e-09
-4.2073e-09
-4.20532e-09
-4.20314e-09
-4.20074e-09
-4.19812e-09
-4.19528e-09
-4.1922e-09
-4.18889e-09
-4.18534e-09
-4.18155e-09
-4.17751e-09
-4.17322e-09
-4.16868e-09
-4.16389e-09
-4.15884e-09
-4.15354e-09
-4.14798e-09
-4.14216e-09
-4.1361e-09
-4.12978e-09
-4.1232e-09
-4.11638e-09
-4.10931e-09
-4.10199e-09
-4.09444e-09
-4.08664e-09
-4.07861e-09
-4.07036e-09
-4.06187e-09
-4.05316e-09
-4.04424e-09
-4.0351e-09
-4.02576e-09
-4.01622e-09
-4.00648e-09
-3.99655e-09
-3.98645e-09
-3.97616e-09
-3.9657e-09
-3.95508e-09
-3.9443e-09
-3.93336e-09
-3.92228e-09
-3.91106e-09
-3.89971e-09
-3.88823e-09
-3.87663e-09
-3.86491e-09
-3.85309e-09
-3.84116e-09
-3.82912e-09
-3.817e-09
-3.80478e-09
-3.79248e-09
-3.78009e-09
-3.76762e-09
-3.75507e-09
-3.74244e-09
-3.72974e-09
-3.71695e-09
-3.70409e-09
-3.69114e-09
-3.6781e-09
-3.66497e-09
-3.65173e-09
-3.63838e-09
-3.62491e-09
-3.6113e-09
-3.59753e-09
-3.58359e-09
-3.56945e-09
-3.55508e-09
-3.54046e-09
-3.52555e-09
-3.5103e-09
-3.49468e-09
-3.47864e-09
-3.46211e-09
-3.44503e-09
-3.42734e-09
-3.40895e-09
-3.38978e-09
-3.36972e-09
-3.34867e-09
-3.3265e-09
-3.3031e-09
-3.27831e-09
-3.25197e-09
-3.22391e-09
-3.19395e-09
-3.16187e-09
-3.12746e-09
-3.09048e-09
-3.05066e-09
-3.00773e-09
-2.9614e-09
-2.91135e-09
-2.85725e-09
-2.79875e-09
-2.73549e-09
-2.66708e-09
-2.59313e-09
-2.51325e-09
-2.42702e-09
-2.33405e-09
-2.23394e-09
-2.1263e-09
-2.01077e-09
-1.887e-09
-1.7547e-09
-1.61362e-09
-1.46356e-09
-1.30442e-09
-1.13615e-09
-9.58851e-10
-7.72713e-10
-5.78092e-10
-3.75518e-10
-1.65728e-10
5.0285e-11
2.71227e-10
4.95438e-10
7.20823e-10
9.44775e-10
1.1641e-09
1.37497e-09
1.57289e-09
1.75275e-09
1.90896e-09
2.03574e-09
2.12754e-09
2.17949e-09
2.18805e-09
2.1514e-09
2.06962e-09
1.94506e-09
1.78062e-09
1.58272e-09
1.36308e-09
1.12068e-09
8.20229e-10
4.62202e-10
1.85995e-10
1.69784e-10
2.07261e-10
2.21362e-10
2.34579e-10
3.45439e-10
4.98737e-10
6.13331e-10
6.88112e-10
7.42876e-10
7.88722e-10
8.35174e-10
8.90603e-10
9.60512e-10
1.04698e-09
1.14915e-09
1.26418e-09
1.38819e-09
1.517e-09
1.64665e-09
1.77369e-09
1.89525e-09
2.00907e-09
2.11339e-09
2.20691e-09
2.28867e-09
2.35801e-09
2.41449e-09
2.45788e-09
2.48808e-09
2.50515e-09
2.50927e-09
2.5007e-09
2.4798e-09
2.447e-09
2.40279e-09
2.34772e-09
2.28239e-09
2.20741e-09
2.12344e-09
2.03113e-09
1.93115e-09
1.82416e-09
1.71084e-09
1.59182e-09
1.46774e-09
1.33921e-09
1.20684e-09
1.07118e-09
9.32771e-10
7.92137e-10
6.49762e-10
5.06106e-10
3.61599e-10
2.16647e-10
7.1626e-11
-7.31125e-11
-2.17243e-10
-3.60465e-10
-5.025e-10
-6.43094e-10
-7.82012e-10
-9.19039e-10
-1.05398e-09
-1.18667e-09
-1.31693e-09
-1.44464e-09
-1.56966e-09
-1.69188e-09
-1.8112e-09
-1.92755e-09
-2.04083e-09
-2.151e-09
-2.25801e-09
-2.36181e-09
-2.46237e-09
-2.55968e-09
-2.65372e-09
-2.74448e-09
-2.83197e-09
-2.9162e-09
-2.99719e-09
-3.07496e-09
-3.14954e-09
-3.22096e-09
-3.28926e-09
-3.35449e-09
-3.4167e-09
-3.47594e-09
-3.53227e-09
-3.58574e-09
-3.63643e-09
-3.68439e-09
-3.7297e-09
-3.77242e-09
-3.81264e-09
-3.85042e-09
-3.88585e-09
-3.919e-09
-3.94995e-09
-3.97877e-09
-4.00556e-09
-4.03039e-09
-4.05335e-09
-4.0745e-09
-4.09394e-09
-4.11175e-09
-4.128e-09
-4.14278e-09
-4.15615e-09
-4.16821e-09
-4.17902e-09
-4.18866e-09
-4.1972e-09
-4.20472e-09
-4.21128e-09
-4.21695e-09
-4.2218e-09
-4.22589e-09
-4.22929e-09
-4.23204e-09
-4.23422e-09
-4.23587e-09
-4.23704e-09
-4.2378e-09
-4.23818e-09
-4.23822e-09
-4.23799e-09
-4.2375e-09
-4.23681e-09
-4.23594e-09
-4.23494e-09
-4.23382e-09
-4.23262e-09
-4.23137e-09
-4.23009e-09
-4.22879e-09
-4.2275e-09
-4.22624e-09
-4.22501e-09
-4.22384e-09
-4.22274e-09
-4.2217e-09
-4.22075e-09
-4.21988e-09
-4.21909e-09
-4.2184e-09
-4.2178e-09
-4.21729e-09
-4.21687e-09
-4.21653e-09
-4.21627e-09
-4.21609e-09
-4.21598e-09
-4.21593e-09
-4.21593e-09
-4.21598e-09
-4.21606e-09
-4.21617e-09
-4.21629e-09
-4.21642e-09
-4.21654e-09
-4.21664e-09
-4.21671e-09
-4.21673e-09
-4.21671e-09
-4.21661e-09
-4.21644e-09
-4.21618e-09
-4.21582e-09
-4.21535e-09
-4.21476e-09
-4.21403e-09
-4.21316e-09
-4.21213e-09
-4.21094e-09
-4.20958e-09
-4.20803e-09
-4.2063e-09
-4.20436e-09
-4.20222e-09
-4.19987e-09
-4.1973e-09
-4.1945e-09
-4.19147e-09
-4.18821e-09
-4.1847e-09
-4.18096e-09
-4.17697e-09
-4.17272e-09
-4.16823e-09
-4.16348e-09
-4.15848e-09
-4.15322e-09
-4.14771e-09
-4.14194e-09
-4.13591e-09
-4.12963e-09
-4.1231e-09
-4.11632e-09
-4.10929e-09
-4.10202e-09
-4.0945e-09
-4.08675e-09
-4.07875e-09
-4.07053e-09
-4.06208e-09
-4.05341e-09
-4.04452e-09
-4.03542e-09
-4.02612e-09
-4.01661e-09
-4.0069e-09
-3.99701e-09
-3.98693e-09
-3.97667e-09
-3.96624e-09
-3.95565e-09
-3.9449e-09
-3.934e-09
-3.92295e-09
-3.91176e-09
-3.90044e-09
-3.88899e-09
-3.87741e-09
-3.86573e-09
-3.85393e-09
-3.84203e-09
-3.83003e-09
-3.81794e-09
-3.80576e-09
-3.79349e-09
-3.78114e-09
-3.76871e-09
-3.7562e-09
-3.74362e-09
-3.73097e-09
-3.71823e-09
-3.70543e-09
-3.69254e-09
-3.67957e-09
-3.66651e-09
-3.65336e-09
-3.6401e-09
-3.62672e-09
-3.61322e-09
-3.59957e-09
-3.58576e-09
-3.57177e-09
-3.55756e-09
-3.54311e-09
-3.5284e-09
-3.51337e-09
-3.49798e-09
-3.4822e-09
-3.46596e-09
-3.44921e-09
-3.43187e-09
-3.41387e-09
-3.39512e-09
-3.37554e-09
-3.35501e-09
-3.33342e-09
-3.31064e-09
-3.28654e-09
-3.26095e-09
-3.23373e-09
-3.20467e-09
-3.17358e-09
-3.14025e-09
-3.10444e-09
-3.0659e-09
-3.02435e-09
-2.97953e-09
-2.9311e-09
-2.87875e-09
-2.82214e-09
-2.76091e-09
-2.69467e-09
-2.62305e-09
-2.54564e-09
-2.46205e-09
-2.37187e-09
-2.27469e-09
-2.17014e-09
-2.05783e-09
-1.93742e-09
-1.80859e-09
-1.67107e-09
-1.52464e-09
-1.36916e-09
-1.20455e-09
-1.03085e-09
-8.48188e-10
-6.56842e-10
-4.57245e-10
-2.50022e-10
-3.60236e-11
1.83622e-10
4.07448e-10
6.33585e-10
8.59674e-10
1.0828e-09
1.29942e-09
1.50531e-09
1.69563e-09
1.865e-09
2.00781e-09
2.11855e-09
2.19235e-09
2.22554e-09
2.21615e-09
2.16405e-09
2.07014e-09
1.93686e-09
1.76838e-09
1.57451e-09
1.35219e-09
1.05375e-09
6.55438e-10
2.98174e-10
2.28052e-10
2.27324e-10
1.86612e-10
1.29242e-10
1.98824e-10
3.45276e-10
4.62896e-10
5.43884e-10
6.10375e-10
6.72587e-10
7.38403e-10
8.14904e-10
9.06588e-10
1.01467e-09
1.13758e-09
1.27194e-09
1.41348e-09
1.55779e-09
1.70084e-09
1.83918e-09
1.97004e-09
2.0913e-09
2.20137e-09
2.29913e-09
2.38379e-09
2.45488e-09
2.51212e-09
2.55544e-09
2.58486e-09
2.60058e-09
2.60288e-09
2.59211e-09
2.56871e-09
2.5332e-09
2.48613e-09
2.42809e-09
2.35973e-09
2.2817e-09
2.19468e-09
2.09936e-09
1.99641e-09
1.88653e-09
1.77039e-09
1.64864e-09
1.52192e-09
1.39085e-09
1.25603e-09
1.11801e-09
9.77355e-10
8.34561e-10
6.9012e-10
5.44485e-10
3.98086e-10
2.51325e-10
1.04573e-10
-4.18211e-11
-1.87535e-10
-3.32273e-10
-4.75759e-10
-6.17743e-10
-7.57992e-10
-8.96296e-10
-1.03246e-09
-1.16632e-09
-1.29771e-09
-1.4265e-09
-1.55256e-09
-1.67577e-09
-1.79605e-09
-1.91331e-09
-2.02748e-09
-2.1385e-09
-2.24631e-09
-2.35089e-09
-2.4522e-09
-2.55022e-09
-2.64494e-09
-2.73636e-09
-2.82448e-09
-2.9093e-09
-2.99086e-09
-3.06917e-09
-3.14426e-09
-3.21617e-09
-3.28494e-09
-3.35061e-09
-3.41323e-09
-3.47286e-09
-3.52956e-09
-3.58338e-09
-3.63438e-09
-3.68265e-09
-3.72824e-09
-3.77122e-09
-3.81168e-09
-3.84968e-09
-3.8853e-09
-3.91863e-09
-3.94974e-09
-3.97872e-09
-4.00563e-09
-4.03058e-09
-4.05363e-09
-4.07487e-09
-4.09438e-09
-4.11224e-09
-4.12853e-09
-4.14333e-09
-4.15673e-09
-4.16879e-09
-4.1796e-09
-4.18923e-09
-4.19775e-09
-4.20523e-09
-4.21176e-09
-4.21738e-09
-4.22218e-09
-4.22622e-09
-4.22955e-09
-4.23224e-09
-4.23434e-09
-4.23592e-09
-4.23702e-09
-4.2377e-09
-4.23799e-09
-4.23796e-09
-4.23764e-09
-4.23708e-09
-4.2363e-09
-4.23536e-09
-4.23427e-09
-4.23308e-09
-4.23181e-09
-4.23048e-09
-4.22912e-09
-4.22776e-09
-4.2264e-09
-4.22508e-09
-4.22379e-09
-4.22257e-09
-4.22141e-09
-4.22032e-09
-4.21932e-09
-4.21841e-09
-4.21759e-09
-4.21687e-09
-4.21624e-09
-4.2157e-09
-4.21526e-09
-4.21491e-09
-4.21464e-09
-4.21445e-09
-4.21433e-09
-4.21428e-09
-4.21429e-09
-4.21434e-09
-4.21443e-09
-4.21455e-09
-4.21469e-09
-4.21484e-09
-4.21498e-09
-4.2151e-09
-4.2152e-09
-4.21526e-09
-4.21526e-09
-4.21521e-09
-4.21507e-09
-4.21485e-09
-4.21453e-09
-4.2141e-09
-4.21355e-09
-4.21287e-09
-4.21204e-09
-4.21106e-09
-4.20992e-09
-4.2086e-09
-4.20711e-09
-4.20542e-09
-4.20354e-09
-4.20145e-09
-4.19914e-09
-4.19662e-09
-4.19387e-09
-4.19089e-09
-4.18768e-09
-4.18423e-09
-4.18053e-09
-4.17659e-09
-4.17239e-09
-4.16794e-09
-4.16324e-09
-4.15829e-09
-4.15307e-09
-4.1476e-09
-4.14188e-09
-4.13589e-09
-4.12966e-09
-4.12317e-09
-4.11642e-09
-4.10943e-09
-4.1022e-09
-4.09472e-09
-4.087e-09
-4.07904e-09
-4.07085e-09
-4.06244e-09
-4.0538e-09
-4.04494e-09
-4.03587e-09
-4.0266e-09
-4.01712e-09
-4.00744e-09
-3.99757e-09
-3.98752e-09
-3.97729e-09
-3.96689e-09
-3.95632e-09
-3.9456e-09
-3.93472e-09
-3.9237e-09
-3.91253e-09
-3.90123e-09
-3.88981e-09
-3.87826e-09
-3.8666e-09
-3.85483e-09
-3.84296e-09
-3.83099e-09
-3.81893e-09
-3.80678e-09
-3.79454e-09
-3.78223e-09
-3.76984e-09
-3.75738e-09
-3.74484e-09
-3.73224e-09
-3.71956e-09
-3.70681e-09
-3.69399e-09
-3.68109e-09
-3.66811e-09
-3.65505e-09
-3.64189e-09
-3.62862e-09
-3.61524e-09
-3.60173e-09
-3.58806e-09
-3.57423e-09
-3.56021e-09
-3.54597e-09
-3.53148e-09
-3.5167e-09
-3.5016e-09
-3.48612e-09
-3.47022e-09
-3.45385e-09
-3.43692e-09
-3.41938e-09
-3.40114e-09
-3.38212e-09
-3.3622e-09
-3.34129e-09
-3.31926e-09
-3.29597e-09
-3.27129e-09
-3.24504e-09
-3.21706e-09
-3.18715e-09
-3.1551e-09
-3.12069e-09
-3.08367e-09
-3.04377e-09
-3.00074e-09
-2.95425e-09
-2.90399e-09
-2.84963e-09
-2.79082e-09
-2.72718e-09
-2.65833e-09
-2.58389e-09
-2.50345e-09
-2.4166e-09
-2.32295e-09
-2.2221e-09
-2.11367e-09
-1.99729e-09
-1.87264e-09
-1.73942e-09
-1.59738e-09
-1.44634e-09
-1.28618e-09
-1.11687e-09
-9.38478e-10
-7.51194e-10
-5.55344e-10
-3.51423e-10
-1.40132e-10
7.75784e-11
3.00454e-10
5.26861e-10
7.54711e-10
9.8137e-10
1.20359e-09
1.41743e-09
1.61829e-09
1.80098e-09
1.95994e-09
2.08963e-09
2.18495e-09
2.24188e-09
2.25791e-09
2.23219e-09
2.16506e-09
2.05754e-09
1.91227e-09
1.73817e-09
1.53338e-09
1.24454e-09
8.26023e-10
4.12335e-10
3.13115e-10
2.96565e-10
2.19139e-10
9.43721e-11
1.16293e-10
2.49732e-10
3.65004e-10
4.46489e-10
5.19407e-10
5.93517e-10
6.75069e-10
7.69758e-10
8.80959e-10
1.00891e-09
1.15123e-09
1.30387e-09
1.46209e-09
1.6212e-09
1.77701e-09
1.92605e-09
2.0656e-09
2.19366e-09
2.30879e-09
2.41006e-09
2.49687e-09
2.56891e-09
2.62608e-09
2.66846e-09
2.69625e-09
2.70974e-09
2.70934e-09
2.6955e-09
2.66877e-09
2.62973e-09
2.57898e-09
2.5172e-09
2.44507e-09
2.36327e-09
2.27253e-09
2.17355e-09
2.06704e-09
1.95368e-09
1.83418e-09
1.70919e-09
1.57936e-09
1.4453e-09
1.30762e-09
1.16687e-09
1.0236e-09
8.78315e-10
7.31501e-10
5.83605e-10
4.35053e-10
2.86241e-10
1.37537e-10
-1.07144e-11
-1.582e-10
-3.04623e-10
-4.49715e-10
-5.93229e-10
-7.34937e-10
-8.74632e-10
-1.01213e-09
-1.14725e-09
-1.27985e-09
-1.40979e-09
-1.53695e-09
-1.66122e-09
-1.7825e-09
-1.90072e-09
-2.0158e-09
-2.12769e-09
-2.23634e-09
-2.34171e-09
-2.44378e-09
-2.54252e-09
-2.63793e-09
-2.72999e-09
-2.81873e-09
-2.90414e-09
-2.98626e-09
-3.06509e-09
-3.14068e-09
-3.21305e-09
-3.28226e-09
-3.34834e-09
-3.41135e-09
-3.47134e-09
-3.52837e-09
-3.58249e-09
-3.63379e-09
-3.68231e-09
-3.72814e-09
-3.77134e-09
-3.81199e-09
-3.85017e-09
-3.88595e-09
-3.91942e-09
-3.95065e-09
-3.97972e-09
-4.00672e-09
-4.03173e-09
-4.05484e-09
-4.07611e-09
-4.09565e-09
-4.11352e-09
-4.12981e-09
-4.1446e-09
-4.15797e-09
-4.17e-09
-4.18076e-09
-4.19034e-09
-4.1988e-09
-4.20622e-09
-4.21267e-09
-4.21821e-09
-4.22293e-09
-4.22687e-09
-4.23011e-09
-4.23271e-09
-4.23471e-09
-4.23619e-09
-4.23719e-09
-4.23776e-09
-4.23796e-09
-4.23782e-09
-4.2374e-09
-4.23674e-09
-4.23586e-09
-4.23482e-09
-4.23364e-09
-4.23235e-09
-4.23099e-09
-4.22958e-09
-4.22814e-09
-4.2267e-09
-4.22527e-09
-4.22388e-09
-4.22253e-09
-4.22124e-09
-4.22003e-09
-4.21889e-09
-4.21784e-09
-4.21689e-09
-4.21603e-09
-4.21528e-09
-4.21462e-09
-4.21406e-09
-4.21361e-09
-4.21324e-09
-4.21296e-09
-4.21277e-09
-4.21265e-09
-4.2126e-09
-4.21262e-09
-4.21268e-09
-4.21279e-09
-4.21293e-09
-4.21309e-09
-4.21326e-09
-4.21343e-09
-4.21359e-09
-4.21372e-09
-4.21382e-09
-4.21386e-09
-4.21385e-09
-4.21376e-09
-4.21358e-09
-4.21331e-09
-4.21293e-09
-4.21243e-09
-4.21179e-09
-4.21102e-09
-4.21009e-09
-4.209e-09
-4.20774e-09
-4.20629e-09
-4.20466e-09
-4.20283e-09
-4.20079e-09
-4.19854e-09
-4.19608e-09
-4.19338e-09
-4.19045e-09
-4.18729e-09
-4.18389e-09
-4.18024e-09
-4.17635e-09
-4.1722e-09
-4.1678e-09
-4.16315e-09
-4.15823e-09
-4.15307e-09
-4.14764e-09
-4.14196e-09
-4.13601e-09
-4.12982e-09
-4.12337e-09
-4.11666e-09
-4.10971e-09
-4.10251e-09
-4.09506e-09
-4.08738e-09
-4.07945e-09
-4.0713e-09
-4.06291e-09
-4.0543e-09
-4.04547e-09
-4.03643e-09
-4.02718e-09
-4.01772e-09
-4.00807e-09
-3.99823e-09
-3.9882e-09
-3.97799e-09
-3.96761e-09
-3.95707e-09
-3.94636e-09
-3.93551e-09
-3.9245e-09
-3.91336e-09
-3.90208e-09
-3.89068e-09
-3.87916e-09
-3.86752e-09
-3.85577e-09
-3.84393e-09
-3.83198e-09
-3.81995e-09
-3.80783e-09
-3.79563e-09
-3.78335e-09
-3.77099e-09
-3.75857e-09
-3.74609e-09
-3.73353e-09
-3.72091e-09
-3.70822e-09
-3.69547e-09
-3.68265e-09
-3.66976e-09
-3.65679e-09
-3.64374e-09
-3.6306e-09
-3.61735e-09
-3.60399e-09
-3.59049e-09
-3.57685e-09
-3.56303e-09
-3.54902e-09
-3.53478e-09
-3.52029e-09
-3.5055e-09
-3.49038e-09
-3.47487e-09
-3.45892e-09
-3.44247e-09
-3.42546e-09
-3.4078e-09
-3.38941e-09
-3.3702e-09
-3.35007e-09
-3.32889e-09
-3.30654e-09
-3.28288e-09
-3.25777e-09
-3.23102e-09
-3.20245e-09
-3.17188e-09
-3.13907e-09
-3.10379e-09
-3.0658e-09
-3.02481e-09
-2.98055e-09
-2.9327e-09
-2.88093e-09
-2.82491e-09
-2.76426e-09
-2.69862e-09
-2.62759e-09
-2.55078e-09
-2.46779e-09
-2.37822e-09
-2.28166e-09
-2.17772e-09
-2.06603e-09
-1.94624e-09
-1.81803e-09
-1.68112e-09
-1.53529e-09
-1.38037e-09
-1.21627e-09
-1.04298e-09
-8.6059e-10
-6.69327e-10
-4.69551e-10
-2.61806e-10
-4.68581e-11
1.7425e-10
4.00126e-10
6.28945e-10
8.58361e-10
1.0854e-09
1.3064e-09
1.51698e-09
1.71207e-09
1.88613e-09
2.03347e-09
2.14869e-09
2.22726e-09
2.26601e-09
2.26337e-09
2.21903e-09
2.13307e-09
2.00732e-09
1.85055e-09
1.6643e-09
1.39497e-09
9.77552e-10
5.319e-10
4.19436e-10
4.07196e-10
3.12993e-10
1.28595e-10
9.96958e-11
2.15521e-10
3.24062e-10
4.00885e-10
4.7502e-10
5.56323e-10
6.49534e-10
7.58946e-10
8.86763e-10
1.03218e-09
1.1919e-09
1.36116e-09
1.53467e-09
1.70739e-09
1.8749e-09
2.03368e-09
2.18102e-09
2.31502e-09
2.43439e-09
2.53833e-09
2.62645e-09
2.69859e-09
2.75486e-09
2.79546e-09
2.82076e-09
2.8312e-09
2.82728e-09
2.80959e-09
2.77874e-09
2.7354e-09
2.68026e-09
2.61404e-09
2.53746e-09
2.45127e-09
2.3562e-09
2.25299e-09
2.14237e-09
2.02505e-09
1.90171e-09
1.77304e-09
1.63968e-09
1.50225e-09
1.36135e-09
1.21754e-09
1.07135e-09
9.2329e-10
7.73839e-10
6.23442e-10
4.72515e-10
3.2145e-10
1.70607e-10
2.0325e-11
-1.29085e-10
-2.77336e-10
-4.24163e-10
-5.69324e-10
-7.12596e-10
-8.53778e-10
-9.92686e-10
-1.12915e-09
-1.26303e-09
-1.39419e-09