/*--------------------------------*- C++ -*----------------------------------*\
| =========                 |                                                 |
| \\      /  F ield         | OpenFOAM: The Open Source CFD Toolbox           |
|  \\    /   O peration     | Version:  2112                                  |
|   \\  /    A nd           | Website:  www.openfoam.com                      |
|    \\/     M anipulation  |                                                 |
\*---------------------------------------------------------------------------*/
FoamFile
{
    version     2.0;
    format      ascii;
    arch        "LSB;label=32;scalar=64";
    class       surfaceScalarField;
    location    "5.92";
    object      phi;
}
// * * * * * * * * * * * * * * * * * * * * * * * * * * * * * * * * * * * * * //

dimensions      [0 3 -1 0 0 0 0];

oriented        oriented;

internalField   nonuniform List<scalar> 
50800
(
0.000471245
1.91203e-12
0.000471245
-9.69588e-13
0.000471245
-2.79722e-12
0.000471245
-3.36454e-12
0.000471245
-3.29565e-12
0.000471245
-3.03523e-12
0.000471245
-2.72739e-12
0.000471245
-2.41702e-12
0.000471245
-2.12666e-12
0.000471245
-1.8625e-12
0.000471245
-1.62548e-12
0.000471245
-1.41481e-12
0.000471245
-1.22879e-12
0.000471245
-1.06518e-12
0.000471245
-9.21385e-13
0.000471245
-7.94779e-13
0.000471245
-6.82903e-13
0.000471245
-5.83599e-13
0.000471245
-4.95049e-13
0.000471245
-4.15764e-13
0.000471245
-3.4454e-13
0.000471245
-2.80398e-13
0.000471245
-2.22536e-13
0.000471245
-1.70281e-13
0.000471245
-1.23059e-13
0.000471245
-8.0392e-14
0.000471245
-4.22302e-14
0.000471245
-6.6257e-15
0.000471245
2.47854e-14
0.000471245
5.31337e-14
0.000471245
7.88642e-14
0.000471245
1.02098e-13
0.000471245
1.23049e-13
0.000471245
1.41919e-13
0.000471245
1.58886e-13
0.000471245
1.74111e-13
0.000471245
1.87741e-13
0.000471245
1.99903e-13
0.000471245
2.10715e-13
0.000471245
2.20283e-13
0.000471245
2.28701e-13
0.000471245
2.36054e-13
0.000471245
2.4242e-13
0.000471245
2.47871e-13
0.000471245
2.52473e-13
0.000471245
2.56284e-13
0.000471245
2.5936e-13
0.000471245
2.61751e-13
0.000471245
2.63505e-13
0.000471245
2.64664e-13
0.000471245
2.65269e-13
0.000471245
2.65359e-13
0.000471245
2.64967e-13
0.000471245
2.64127e-13
0.000471245
2.62871e-13
0.000471245
2.61224e-13
0.000471245
2.59217e-13
0.000471245
2.56874e-13
0.000471245
2.54219e-13
0.000471245
2.51276e-13
0.000471245
2.48063e-13
0.000471245
2.44606e-13
0.000471245
2.40919e-13
0.000471245
2.37024e-13
0.000471245
2.32938e-13
0.000471245
2.28675e-13
0.000471245
2.24254e-13
0.000471245
2.1969e-13
0.000471245
2.14997e-13
0.000471245
2.10189e-13
0.000471245
2.05279e-13
0.000471245
2.00282e-13
0.000471245
1.95209e-13
0.000471245
1.90074e-13
0.000471245
1.84886e-13
0.000471245
1.79656e-13
0.000471245
1.74397e-13
0.000471245
1.69119e-13
0.000471245
1.63831e-13
0.000471245
1.58543e-13
0.000471245
1.53263e-13
0.000471245
1.48001e-13
0.000471245
1.42768e-13
0.000471245
1.37568e-13
0.000471245
1.32412e-13
0.000471245
1.27306e-13
0.000471245
1.22257e-13
0.000471245
1.17274e-13
0.000471245
1.12362e-13
0.000471245
1.07526e-13
0.000471245
1.02772e-13
0.000471245
9.81077e-14
0.000471245
9.35378e-14
0.000471245
8.90657e-14
0.000471245
8.4695e-14
0.000471245
8.04313e-14
0.000471245
7.62802e-14
0.000471245
7.22414e-14
0.000471245
6.83211e-14
0.000471245
6.45204e-14
0.000471245
6.08394e-14
0.000471245
5.72857e-14
0.000471245
5.38577e-14
0.000471245
5.0557e-14
0.000471245
4.73865e-14
0.000471245
4.43424e-14
0.000471245
4.14277e-14
0.000471245
3.86455e-14
0.000471245
3.59933e-14
0.000471245
3.34689e-14
0.000471245
3.10731e-14
0.000471245
2.8803e-14
0.000471245
2.66618e-14
0.000471245
2.46465e-14
0.000471245
2.27512e-14
0.000471245
2.09772e-14
0.000471245
1.93231e-14
0.000471245
1.77858e-14
0.000471245
1.63609e-14
0.000471245
1.50465e-14
0.000471245
1.38414e-14
0.000471245
1.27396e-14
0.000471245
1.17397e-14
0.000471245
1.08406e-14
0.000471245
1.00335e-14
0.000471245
9.31574e-15
0.000471245
8.68551e-15
0.000471245
8.14135e-15
0.000471245
7.67479e-15
0.000471245
7.2823e-15
0.000471245
6.96246e-15
0.000471245
6.70944e-15
0.000471245
6.52099e-15
0.000471245
6.39218e-15
0.000471245
6.3178e-15
0.000471245
6.29518e-15
0.000471245
6.3186e-15
0.000471245
6.3881e-15
0.000471245
6.49868e-15
0.000471245
6.64156e-15
0.000471245
6.81824e-15
0.000471245
7.02494e-15
0.000471245
7.25765e-15
0.000471245
7.51106e-15
0.000471245
7.78387e-15
0.000471245
8.07224e-15
0.000471245
8.37038e-15
0.000471245
8.68145e-15
0.000471245
8.99996e-15
0.000471245
9.31984e-15
0.000471245
9.64174e-15
0.000471245
9.96239e-15
0.000471245
1.02817e-14
0.000471245
1.05957e-14
0.000471245
1.08999e-14
0.000471245
1.11961e-14
0.000471245
1.1481e-14
0.000471245
1.17556e-14
0.000471245
1.20162e-14
0.000471245
1.22598e-14
0.000471245
1.24884e-14
0.000471245
1.26974e-14
0.000471245
1.28904e-14
0.000471245
1.30651e-14
0.000471245
1.32154e-14
0.000471245
1.33491e-14
0.000471245
1.34626e-14
0.000471245
1.35528e-14
0.000471245
1.36234e-14
0.000471245
1.36719e-14
0.000471245
1.3698e-14
0.000471245
1.37015e-14
0.000471245
1.36877e-14
0.000471245
1.36489e-14
0.000471245
1.35881e-14
0.000471245
1.35121e-14
0.000471245
1.34094e-14
0.000471245
1.32896e-14
0.000471245
1.31529e-14
0.000471245
1.29943e-14
0.000471245
1.28172e-14
0.000471245
1.26214e-14
0.000471245
1.24116e-14
0.000471245
1.21853e-14
0.000471245
1.19419e-14
0.000471245
1.16843e-14
0.000471245
1.14099e-14
0.000471245
1.11248e-14
0.000471245
1.08286e-14
0.000471245
1.05147e-14
0.000471245
1.01933e-14
0.000471245
9.86215e-15
0.000471245
9.51948e-15
0.000471245
9.16913e-15
0.000471245
8.80944e-15
0.000471245
8.44155e-15
0.000471245
8.06556e-15
0.000471245
7.68762e-15
0.000471245
7.29988e-15
0.000471245
6.90602e-15
0.000471245
6.51332e-15
0.000471245
6.11142e-15
0.000471245
5.70755e-15
0.000471245
5.30375e-15
0.000471245
4.89434e-15
0.000471245
4.48407e-15
0.000471245
4.07242e-15
0.000471245
3.66114e-15
0.000471245
3.24886e-15
0.000471245
2.83494e-15
0.000471245
2.42312e-15
0.000471245
2.00972e-15
0.000471245
1.5981e-15
0.000471245
1.18795e-15
0.000471245
7.78499e-16
0.000471245
3.75309e-16
0.000471245
-2.92883e-17
0.000471245
-4.325e-16
0.000471245
-8.34607e-16
0.000471245
-1.2328e-15
0.000471245
-1.62475e-15
0.000471245
-2.01963e-15
0.000471245
-2.40602e-15
0.000471245
-2.7944e-15
0.000471245
-3.17988e-15
0.000471245
-3.55338e-15
0.000471245
-3.93231e-15
0.000471245
-4.30433e-15
0.000471245
-4.67263e-15
0.000471245
-5.04079e-15
0.000471245
-5.39753e-15
0.000471245
-5.75543e-15
0.000471245
-6.11102e-15
0.000471245
-6.45815e-15
0.000471245
-6.80376e-15
0.000471245
-7.14343e-15
0.000471245
-7.48081e-15
0.000471245
-7.81359e-15
0.000471245
-8.14182e-15
0.000471245
-8.46582e-15
0.000471245
-8.78266e-15
0.000471245
-9.09714e-15
0.000471245
-9.4076e-15
0.000471245
-9.71621e-15
0.000471245
-1.00187e-14
0.000471245
-1.03131e-14
0.000471245
-1.06107e-14
0.000471245
-1.08981e-14
0.000471245
-1.11869e-14
0.000471245
-1.1474e-14
0.000471245
-1.17496e-14
0.000471245
-1.20326e-14
0.000471245
-1.23112e-14
0.000471245
-1.25886e-14
0.000471245
-1.28706e-14
0.000471245
-1.31463e-14
0.000471245
-1.343e-14
0.000471245
-1.37202e-14
0.000471245
-1.40115e-14
0.000471245
-1.43138e-14
0.000471245
-1.46243e-14
0.000471245
-1.49498e-14
0.000471245
-1.52923e-14
0.000471245
-1.56529e-14
0.000471245
-1.60383e-14
0.000471245
-1.64501e-14
0.000471245
-1.68961e-14
0.000471245
-1.73822e-14
0.000471245
-1.79153e-14
0.000471245
-1.85029e-14
0.000471245
-1.91473e-14
0.000471245
-1.98699e-14
0.000471245
-2.06725e-14
0.000471245
-2.15736e-14
0.000471245
-2.25849e-14
0.000471245
-2.37131e-14
0.000471245
-2.4991e-14
0.000471245
-2.64287e-14
0.000471245
-2.80497e-14
0.000471245
-2.98798e-14
0.000471245
-3.1936e-14
0.000471245
-3.42571e-14
0.000471245
-3.68726e-14
0.000471245
-3.98118e-14
0.000471245
-4.31147e-14
0.000471245
-4.68168e-14
0.000471245
-5.09659e-14
0.000471245
-5.56033e-14
0.000471245
-6.07761e-14
0.000471245
-6.65308e-14
0.000471245
-7.292e-14
0.000471245
-8.00038e-14
0.000471245
-8.78291e-14
0.000471245
-9.64567e-14
0.000471245
-1.05944e-13
0.000471245
-1.1634e-13
0.000471245
-1.27704e-13
0.000471245
-1.40064e-13
0.000471245
-1.53437e-13
0.000471245
-1.67795e-13
0.000471245
-1.83027e-13
0.000471245
-1.98938e-13
0.000471245
-2.15133e-13
0.000471245
-2.30965e-13
0.000471245
-2.45391e-13
0.000471245
-2.56784e-13
0.000471245
-2.627e-13
0.000471245
-2.59502e-13
0.000471245
-2.41342e-13
0.000471245
-1.99487e-13
0.000471245
-1.18883e-13
0.000471245
3.26204e-14
0.000471245
2.58406e-13
0.000471245
6.32439e-13
0.000471245
1.20963e-12
0.000471245
2.05484e-12
0.000471245
3.18915e-12
0.000471245
4.44373e-12
0.000471245
5.15192e-12
4.35919e-12
0.00139014
6.20261e-12
0.00139014
-1.45407e-12
0.00139014
-7.06194e-12
0.00139014
-9.54733e-12
0.00139014
-1.00358e-11
0.00139014
-9.69992e-12
0.00139014
-9.02902e-12
0.00139014
-8.22463e-12
0.00139014
-7.3977e-12
0.00139014
-6.59888e-12
0.00139014
-5.85014e-12
0.00139014
-5.16026e-12
0.00139014
-4.53138e-12
0.00139014
-3.96197e-12
0.00139014
-3.44847e-12
0.00139014
-2.98634e-12
0.00139014
-2.5707e-12
0.00139014
-2.19679e-12
0.00139014
-1.86017e-12
0.00139014
-1.55685e-12
0.00139014
-1.28329e-12
0.00139014
-1.0364e-12
0.00139014
-8.13469e-13
0.00139014
-6.12104e-13
0.00139014
-4.30207e-13
0.00139014
-2.65924e-13
0.00139014
-1.17608e-13
0.00139014
1.61932e-14
0.00139014
1.37304e-13
0.00139014
2.46109e-13
0.00139014
3.44152e-13
0.00139014
4.32358e-13
0.00139014
5.11583e-13
0.00139014
5.82615e-13
0.00139014
6.4616e-13
0.00139014
7.02856e-13
0.00139014
7.53285e-13
0.00139014
7.97965e-13
0.00139014
8.37365e-13
0.00139014
8.71913e-13
0.00139014
9.01996e-13
0.00139014
9.27961e-13
0.00139014
9.50129e-13
0.00139014
9.68788e-13
0.00139014
9.84204e-13
0.00139014
9.96617e-13
0.00139014
1.00625e-12
0.00139014
1.01331e-12
0.00139014
1.01797e-12
0.00139014
1.02042e-12
0.00139014
1.02082e-12
0.00139014
1.0193e-12
0.00139014
1.01601e-12
0.00139014
1.01108e-12
0.00139014
1.00462e-12
0.00139014
9.9674e-13
0.00139014
9.87554e-13
0.00139014
9.77154e-13
0.00139014
9.65632e-13
0.00139014
9.53074e-13
0.00139014
9.39561e-13
0.00139014
9.25173e-13
0.00139014
9.0998e-13
0.00139014
8.94052e-13
0.00139014
8.77458e-13
0.00139014
8.60257e-13
0.00139014
8.42513e-13
0.00139014
8.24282e-13
0.00139014
8.05617e-13
0.00139014
7.86573e-13
0.00139014
7.67199e-13
0.00139014
7.47549e-13
0.00139014
7.27665e-13
0.00139014
7.07593e-13
0.00139014
6.87377e-13
0.00139014
6.67057e-13
0.00139014
6.46675e-13
0.00139014
6.26268e-13
0.00139014
6.05875e-13
0.00139014
5.85529e-13
0.00139014
5.65265e-13
0.00139014
5.45116e-13
0.00139014
5.25115e-13
0.00139014
5.05292e-13
0.00139014
4.85675e-13
0.00139014
4.66289e-13
0.00139014
4.47163e-13
0.00139014
4.28323e-13
0.00139014
4.09789e-13
0.00139014
3.91581e-13
0.00139014
3.73722e-13
0.00139014
3.56235e-13
0.00139014
3.39134e-13
0.00139014
3.22437e-13
0.00139014
3.06157e-13
0.00139014
2.90308e-13
0.00139014
2.74907e-13
0.00139014
2.5996e-13
0.00139014
2.4548e-13
0.00139014
2.31475e-13
0.00139014
2.17948e-13
0.00139014
2.04914e-13
0.00139014
1.92372e-13
0.00139014
1.80327e-13
0.00139014
1.68782e-13
0.00139014
1.57733e-13
0.00139014
1.47181e-13
0.00139014
1.37134e-13
0.00139014
1.27585e-13
0.00139014
1.18524e-13
0.00139014
1.09953e-13
0.00139014
1.01863e-13
0.00139014
9.42514e-14
0.00139014
8.71114e-14
0.00139014
8.04301e-14
0.00139014
7.42022e-14
0.00139014
6.84172e-14
0.00139014
6.30647e-14
0.00139014
5.81335e-14
0.00139014
5.36124e-14
0.00139014
4.94872e-14
0.00139014
4.57441e-14
0.00139014
4.23764e-14
0.00139014
3.93676e-14
0.00139014
3.66976e-14
0.00139014
3.43549e-14
0.00139014
3.23267e-14
0.00139014
3.05998e-14
0.00139014
2.9155e-14
0.00139014
2.79765e-14
0.00139014
2.70522e-14
0.00139014
2.63652e-14
0.00139014
2.59018e-14
0.00139014
2.56458e-14
0.00139014
2.55796e-14
0.00139014
2.56911e-14
0.00139014
2.59634e-14
0.00139014
2.6388e-14
0.00139014
2.69462e-14
0.00139014
2.76185e-14
0.00139014
2.83993e-14
0.00139014
2.92739e-14
0.00139014
3.02316e-14
0.00139014
3.12561e-14
0.00139014
3.23346e-14
0.00139014
3.34569e-14
0.00139014
3.46097e-14
0.00139014
3.57907e-14
0.00139014
3.69854e-14
0.00139014
3.81786e-14
0.00139014
3.93658e-14
0.00139014
4.05398e-14
0.00139014
4.16936e-14
0.00139014
4.28158e-14
0.00139014
4.3899e-14
0.00139014
4.49425e-14
0.00139014
4.59368e-14
0.00139014
4.68778e-14
0.00139014
4.7762e-14
0.00139014
4.85798e-14
0.00139014
4.93305e-14
0.00139014
5.00111e-14
0.00139014
5.06207e-14
0.00139014
5.11529e-14
0.00139014
5.16042e-14
0.00139014
5.19817e-14
0.00139014
5.22769e-14
0.00139014
5.24913e-14
0.00139014
5.26261e-14
0.00139014
5.2677e-14
0.00139014
5.26454e-14
0.00139014
5.25307e-14
0.00139014
5.23425e-14
0.00139014
5.20709e-14
0.00139014
5.17199e-14
0.00139014
5.12983e-14
0.00139014
5.07955e-14
0.00139014
5.02235e-14
0.00139014
4.95844e-14
0.00139014
4.8872e-14
0.00139014
4.8094e-14
0.00139014
4.72522e-14
0.00139014
4.63512e-14
0.00139014
4.53941e-14
0.00139014
4.43803e-14
0.00139014
4.33129e-14
0.00139014
4.21925e-14
0.00139014
4.10313e-14
0.00139014
3.98248e-14
0.00139014
3.8572e-14
0.00139014
3.72867e-14
0.00139014
3.59638e-14
0.00139014
3.46093e-14
0.00139014
3.32271e-14
0.00139014
3.18146e-14
0.00139014
3.03759e-14
0.00139014
2.89135e-14
0.00139014
2.74379e-14
0.00139014
2.59426e-14
0.00139014
2.44274e-14
0.00139014
2.29065e-14
0.00139014
2.13718e-14
0.00139014
1.9828e-14
0.00139014
1.8281e-14
0.00139014
1.67281e-14
0.00139014
1.51732e-14
0.00139014
1.36161e-14
0.00139014
1.20631e-14
0.00139014
1.05092e-14
0.00139014
8.9586e-15
0.00139014
7.4152e-15
0.00139014
5.87384e-15
0.00139014
4.34442e-15
0.00139014
2.82106e-15
0.00139014
1.30711e-15
0.00139014
-1.89259e-16
0.00139014
-1.68053e-15
0.00139014
-3.15929e-15
0.00139014
-4.62585e-15
0.00139014
-6.07844e-15
0.00139014
-7.5092e-15
0.00139014
-8.9318e-15
0.00139014
-1.03364e-14
0.00139014
-1.17287e-14
0.00139014
-1.31053e-14
0.00139014
-1.44537e-14
0.00139014
-1.57935e-14
0.00139014
-1.71151e-14
0.00139014
-1.84181e-14
0.00139014
-1.9704e-14
0.00139014
-2.09629e-14
0.00139014
-2.22092e-14
0.00139014
-2.34369e-14
0.00139014
-2.46426e-14
0.00139014
-2.58305e-14
0.00139014
-2.69957e-14
0.00139014
-2.81441e-14
0.00139014
-2.92721e-14
0.00139014
-3.0383e-14
0.00139014
-3.14727e-14
0.00139014
-3.25372e-14
0.00139014
-3.35909e-14
0.00139014
-3.46253e-14
0.00139014
-3.56466e-14
0.00139014
-3.6652e-14
0.00139014
-3.76335e-14
0.00139014
-3.86134e-14
0.00139014
-3.95766e-14
0.00139014
-4.05357e-14
0.00139014
-4.14929e-14
0.00139014
-4.24342e-14
0.00139014
-4.3389e-14
0.00139014
-4.43493e-14
0.00139014
-4.53182e-14
0.00139014
-4.63093e-14
0.00139014
-4.73151e-14
0.00139014
-4.83579e-14
0.00139014
-4.94439e-14
0.00139014
-5.05746e-14
0.00139014
-5.17681e-14
0.00139014
-5.30299e-14
0.00139014
-5.4382e-14
0.00139014
-5.58385e-14
0.00139014
-5.74134e-14
0.00139014
-5.91265e-14
0.00139014
-6.09967e-14
0.00139014
-6.30554e-14
0.00139014
-6.53218e-14
0.00139014
-6.78317e-14
0.00139014
-7.06143e-14
0.00139014
-7.3695e-14
0.00139014
-7.71329e-14
0.00139014
-8.09594e-14
0.00139014
-8.5226e-14
0.00139014
-8.99848e-14
0.00139014
-9.52797e-14
0.00139014
-1.01196e-13
0.00139014
-1.07789e-13
0.00139014
-1.1513e-13
0.00139014
-1.23308e-13
0.00139014
-1.32396e-13
0.00139014
-1.42497e-13
0.00139014
-1.5371e-13
0.00139014
-1.66138e-13
0.00139014
-1.79889e-13
0.00139014
-1.9508e-13
0.00139014
-2.11843e-13
0.00139014
-2.30298e-13
0.00139014
-2.50572e-13
0.00139014
-2.72794e-13
0.00139014
-2.97088e-13
0.00139014
-3.23584e-13
0.00139014
-3.52384e-13
0.00139014
-3.83591e-13
0.00139014
-4.17276e-13
0.00139014
-4.53461e-13
0.00139014
-4.92146e-13
0.00139014
-5.3322e-13
0.00139014
-5.76464e-13
0.00139014
-6.21482e-13
0.00139014
-6.67598e-13
0.00139014
-7.13784e-13
0.00139014
-7.58392e-13
0.00139014
-7.98914e-13
0.00139014
-8.3156e-13
0.00139014
-8.50594e-13
0.00139014
-8.47413e-13
0.00139014
-8.09077e-13
0.00139014
-7.16026e-13
0.00139014
-5.38755e-13
0.00139014
-2.32365e-13
0.00139014
2.68278e-13
0.00139014
1.04954e-12
0.00139014
2.24091e-12
0.00139014
3.98784e-12
0.00139014
6.41462e-12
0.00139014
9.49543e-12
0.00139014
1.26717e-11
0.00139014
1.43627e-11
1.23768e-11
0.00228538
1.1557e-11
0.00228538
-4.2031e-13
0.00228538
-1.01541e-11
0.00228538
-1.5382e-11
0.00228538
-1.72556e-11
0.00228538
-1.74357e-11
0.00228538
-1.67653e-11
0.00228538
-1.56567e-11
0.00228538
-1.43604e-11
0.00228538
-1.30126e-11
0.00228538
-1.16859e-11
0.00228538
-1.0419e-11
0.00228538
-9.23117e-12
0.00228538
-8.13075e-12
0.00228538
-7.11929e-12
0.00228538
-6.19442e-12
0.00228538
-5.35157e-12
0.00228538
-4.58509e-12
0.00228538
-3.88898e-12
0.00228538
-3.25728e-12
0.00228538
-2.68431e-12
0.00228538
-2.1648e-12
0.00228538
-1.69391e-12
0.00228538
-1.26725e-12
0.00228538
-8.80825e-13
0.00228538
-5.3103e-13
0.00228538
-2.14589e-13
0.00228538
7.14567e-14
0.00228538
3.29864e-13
0.00228538
5.62966e-13
0.00228538
7.73e-13
0.00228538
9.61976e-13
0.00228538
1.1317e-12
0.00228538
1.28383e-12
0.00228538
1.41982e-12
0.00228538
1.54105e-12
0.00228538
1.64873e-12
0.00228538
1.74397e-12
0.00228538
1.82778e-12
0.00228538
1.90107e-12
0.00228538
1.96468e-12
0.00228538
2.01937e-12
0.00228538
2.06582e-12
0.00228538
2.10466e-12
0.00228538
2.13648e-12
0.00228538
2.1618e-12
0.00228538
2.18111e-12
0.00228538
2.19484e-12
0.00228538
2.20341e-12
0.00228538
2.20719e-12
0.00228538
2.20655e-12
0.00228538
2.20179e-12
0.00228538
2.19322e-12
0.00228538
2.18111e-12
0.00228538
2.16574e-12
0.00228538
2.14733e-12
0.00228538
2.12613e-12
0.00228538
2.10233e-12
0.00228538
2.07615e-12
0.00228538
2.04777e-12
0.00228538
2.01736e-12
0.00228538
1.98511e-12
0.00228538
1.95116e-12
0.00228538
1.91567e-12
0.00228538
1.87878e-12
0.00228538
1.84064e-12
0.00228538
1.80137e-12
0.00228538
1.7611e-12
0.00228538
1.71995e-12
0.00228538
1.67803e-12
0.00228538
1.63545e-12
0.00228538
1.59233e-12
0.00228538
1.54877e-12
0.00228538
1.50485e-12
0.00228538
1.46068e-12
0.00228538
1.41635e-12
0.00228538
1.37193e-12
0.00228538
1.32753e-12
0.00228538
1.2832e-12
0.00228538
1.23904e-12
0.00228538
1.19511e-12
0.00228538
1.15149e-12
0.00228538
1.10824e-12
0.00228538
1.06542e-12
0.00228538
1.02311e-12
0.00228538
9.81348e-13
0.00228538
9.40198e-13
0.00228538
8.99713e-13
0.00228538
8.59937e-13
0.00228538
8.20916e-13
0.00228538
7.82694e-13
0.00228538
7.45315e-13
0.00228538
7.0881e-13
0.00228538
6.73214e-13
0.00228538
6.38559e-13
0.00228538
6.04869e-13
0.00228538
5.72176e-13
0.00228538
5.40497e-13
0.00228538
5.09852e-13
0.00228538
4.80256e-13
0.00228538
4.51723e-13
0.00228538
4.24268e-13
0.00228538
3.97894e-13
0.00228538
3.7261e-13
0.00228538
3.48416e-13
0.00228538
3.25308e-13
0.00228538
3.03287e-13
0.00228538
2.82354e-13
0.00228538
2.62498e-13
0.00228538
2.43704e-13
0.00228538
2.25964e-13
0.00228538
2.09263e-13
0.00228538
1.93589e-13
0.00228538
1.78924e-13
0.00228538
1.65243e-13
0.00228538
1.5253e-13
0.00228538
1.40759e-13
0.00228538
1.2991e-13
0.00228538
1.19955e-13
0.00228538
1.10866e-13
0.00228538
1.02615e-13
0.00228538
9.51711e-14
0.00228538
8.85126e-14
0.00228538
8.26043e-14
0.00228538
7.74071e-14
0.00228538
7.28956e-14
0.00228538
6.90377e-14
0.00228538
6.58009e-14
0.00228538
6.31491e-14
0.00228538
6.10474e-14
0.00228538
5.94683e-14
0.00228538
5.83735e-14
0.00228538
5.77329e-14
0.00228538
5.75117e-14
0.00228538
5.76769e-14
0.00228538
5.81986e-14
0.00228538
5.90424e-14
0.00228538
6.0184e-14
0.00228538
6.15882e-14
0.00228538
6.32193e-14
0.00228538
6.50568e-14
0.00228538
6.7071e-14
0.00228538
6.92399e-14
0.00228538
7.15323e-14
0.00228538
7.39167e-14
0.00228538
7.63771e-14
0.00228538
7.88862e-14
0.00228538
8.143e-14
0.00228538
8.39843e-14
0.00228538
8.65234e-14
0.00228538
8.9031e-14
0.00228538
9.14939e-14
0.00228538
9.38978e-14
0.00228538
9.62189e-14
0.00228538
9.84466e-14
0.00228538
1.00574e-13
0.00228538
1.02586e-13
0.00228538
1.04469e-13
0.00228538
1.06223e-13
0.00228538
1.07829e-13
0.00228538
1.0928e-13
0.00228538
1.10575e-13
0.00228538
1.1171e-13
0.00228538
1.12673e-13
0.00228538
1.13465e-13
0.00228538
1.14089e-13
0.00228538
1.14531e-13
0.00228538
1.14802e-13
0.00228538
1.14898e-13
0.00228538
1.14813e-13
0.00228538
1.14553e-13
0.00228538
1.14117e-13
0.00228538
1.13516e-13
0.00228538
1.12746e-13
0.00228538
1.11809e-13
0.00228538
1.10715e-13
0.00228538
1.09457e-13
0.00228538
1.0805e-13
0.00228538
1.06499e-13
0.00228538
1.04802e-13
0.00228538
1.02968e-13
0.00228538
1.01001e-13
0.00228538
9.8911e-14
0.00228538
9.67034e-14
0.00228538
9.43832e-14
0.00228538
9.19519e-14
0.00228538
8.94172e-14
0.00228538
8.67963e-14
0.00228538
8.40829e-14
0.00228538
8.12845e-14
0.00228538
7.84151e-14
0.00228538
7.54739e-14
0.00228538
7.24705e-14
0.00228538
6.94124e-14
0.00228538
6.62987e-14
0.00228538
6.31375e-14
0.00228538
5.9933e-14
0.00228538
5.66984e-14
0.00228538
5.34354e-14
0.00228538
5.01398e-14
0.00228538
4.68288e-14
0.00228538
4.35022e-14
0.00228538
4.01623e-14
0.00228538
3.68177e-14
0.00228538
3.3472e-14
0.00228538
3.01277e-14
0.00228538
2.67864e-14
0.00228538
2.34587e-14
0.00228538
2.0137e-14
0.00228538
1.68301e-14
0.00228538
1.35454e-14
0.00228538
1.02762e-14
0.00228538
7.03756e-15
0.00228538
3.81983e-15
0.00228538
6.29534e-16
0.00228538
-2.52065e-15
0.00228538
-5.64716e-15
0.00228538
-8.73707e-15
0.00228538
-1.17906e-14
0.00228538
-1.48079e-14
0.00228538
-1.77779e-14
0.00228538
-2.07097e-14
0.00228538
-2.36002e-14
0.00228538
-2.64502e-14
0.00228538
-2.92541e-14
0.00228538
-3.20017e-14
0.00228538
-3.47098e-14
0.00228538
-3.73687e-14
0.00228538
-3.99783e-14
0.00228538
-4.25362e-14
0.00228538
-4.50354e-14
0.00228538
-4.74887e-14
0.00228538
-4.98877e-14
0.00228538
-5.22337e-14
0.00228538
-5.45274e-14
0.00228538
-5.67601e-14
0.00228538
-5.89413e-14
0.00228538
-6.10703e-14
0.00228538
-6.31443e-14
0.00228538
-6.51605e-14
0.00228538
-6.71171e-14
0.00228538
-6.90323e-14
0.00228538
-7.08958e-14
0.00228538
-7.27115e-14
0.00228538
-7.44819e-14
0.00228538
-7.61996e-14
0.00228538
-7.78896e-14
0.00228538
-7.95427e-14
0.00228538
-8.11691e-14
0.00228538
-8.27786e-14
0.00228538
-8.43625e-14
0.00228538
-8.59519e-14
0.00228538
-8.75456e-14
0.00228538
-8.91576e-14
0.00228538
-9.08054e-14
0.00228538
-9.24936e-14
0.00228538
-9.42569e-14
0.00228538
-9.61091e-14
0.00228538
-9.80668e-14
0.00228538
-1.00161e-13
0.00228538
-1.02417e-13
0.00228538
-1.04874e-13
0.00228538
-1.07568e-13
0.00228538
-1.10536e-13
0.00228538
-1.13821e-13
0.00228538
-1.17471e-13
0.00228538
-1.21549e-13
0.00228538
-1.26106e-13
0.00228538
-1.3122e-13
0.00228538
-1.36958e-13
0.00228538
-1.43387e-13
0.00228538
-1.50617e-13
0.00228538
-1.58734e-13
0.00228538
-1.67844e-13
0.00228538
-1.78059e-13
0.00228538
-1.8949e-13
0.00228538
-2.02299e-13
0.00228538
-2.16616e-13
0.00228538
-2.3259e-13
0.00228538
-2.50401e-13
0.00228538
-2.70215e-13
0.00228538
-2.92238e-13
0.00228538
-3.16671e-13
0.00228538
-3.43724e-13
0.00228538
-3.73619e-13
0.00228538
-4.06592e-13
0.00228538
-4.429e-13
0.00228538
-4.82776e-13
0.00228538
-5.26472e-13
0.00228538
-5.74228e-13
0.00228538
-6.26269e-13
0.00228538
-6.82819e-13
0.00228538
-7.44049e-13
0.00228538
-8.10103e-13
0.00228538
-8.81038e-13
0.00228538
-9.56817e-13
0.00228538
-1.03729e-12
0.00228538
-1.12209e-12
0.00228538
-1.21058e-12
0.00228538
-1.30175e-12
0.00228538
-1.39401e-12
0.00228538
-1.48501e-12
0.00228538
-1.57123e-12
0.00228538
-1.64744e-12
0.00228538
-1.70597e-12
0.00228538
-1.73549e-12
0.00228538
-1.71933e-12
0.00228538
-1.63297e-12
0.00228538
-1.44037e-12
0.00228538
-1.08891e-12
0.00228538
-5.02115e-13
0.00228538
4.26225e-13
0.00228538
1.83832e-12
0.00228538
3.92054e-12
0.00228538
6.86941e-12
0.00228538
1.08182e-11
0.00228538
1.56438e-11
0.00228538
2.04965e-11
0.00228538
2.31595e-11
2.05398e-11
0.00315689
1.65571e-11
0.00315689
1.76034e-12
0.00315689
-1.14109e-11
0.00315689
-1.94997e-11
0.00315689
-2.3248e-11
0.00315689
-2.44833e-11
0.00315689
-2.42778e-11
0.00315689
-2.3222e-11
0.00315689
-2.17088e-11
0.00315689
-1.99774e-11
0.00315689
-1.81705e-11
0.00315689
-1.63734e-11
0.00315689
-1.46367e-11
0.00315689
-1.29889e-11
0.00315689
-1.14447e-11
0.00315689
-1.001e-11
0.00315689
-8.685e-12
0.00315689
-7.4665e-12
0.00315689
-6.34938e-12
0.00315689
-5.32753e-12
0.00315689
-4.39438e-12
0.00315689
-3.5434e-12
0.00315689
-2.76821e-12
0.00315689
-2.06279e-12
0.00315689
-1.42147e-12
0.00315689
-8.38991e-13
0.00315689
-3.10478e-13
0.00315689
1.68538e-13
0.00315689
6.02132e-13
0.00315689
9.94141e-13
0.00315689
1.34798e-12
0.00315689
1.66682e-12
0.00315689
1.95353e-12
0.00315689
2.21076e-12
0.00315689
2.44091e-12
0.00315689
2.64617e-12
0.00315689
2.82854e-12
0.00315689
2.98985e-12
0.00315689
3.13176e-12
0.00315689
3.25579e-12
0.00315689
3.36333e-12
0.00315689
3.45566e-12
0.00315689
3.53392e-12
0.00315689
3.5992e-12
0.00315689
3.65245e-12
0.00315689
3.69458e-12
0.00315689
3.72641e-12
0.00315689
3.7487e-12
0.00315689
3.76215e-12
0.00315689
3.76739e-12
0.00315689
3.76505e-12
0.00315689
3.75566e-12
0.00315689
3.73974e-12
0.00315689
3.71778e-12
0.00315689
3.69022e-12
0.00315689
3.65747e-12
0.00315689
3.61995e-12
0.00315689
3.57801e-12
0.00315689
3.53199e-12
0.00315689
3.48223e-12
0.00315689
3.42904e-12
0.00315689
3.37271e-12
0.00315689
3.31351e-12
0.00315689
3.25171e-12
0.00315689
3.18756e-12
0.00315689
3.1213e-12
0.00315689
3.05316e-12
0.00315689
2.98335e-12
0.00315689
2.91209e-12
0.00315689
2.83957e-12
0.00315689
2.76598e-12
0.00315689
2.69152e-12
0.00315689
2.61635e-12
0.00315689
2.54064e-12
0.00315689
2.46456e-12
0.00315689
2.38827e-12
0.00315689
2.3119e-12
0.00315689
2.23562e-12
0.00315689
2.15954e-12
0.00315689
2.0838e-12
0.00315689
2.00854e-12
0.00315689
1.93386e-12
0.00315689
1.85989e-12
0.00315689
1.78673e-12
0.00315689
1.71449e-12
0.00315689
1.64326e-12
0.00315689
1.57314e-12
0.00315689
1.50421e-12
0.00315689
1.43656e-12
0.00315689
1.37026e-12
0.00315689
1.30538e-12
0.00315689
1.242e-12
0.00315689
1.18017e-12
0.00315689
1.11993e-12
0.00315689
1.06136e-12
0.00315689
1.00448e-12
0.00315689
9.49342e-13
0.00315689
8.9598e-13
0.00315689
8.44422e-13
0.00315689
7.94693e-13
0.00315689
7.4681e-13
0.00315689
7.00793e-13
0.00315689
6.56651e-13
0.00315689
6.14391e-13
0.00315689
5.74014e-13
0.00315689
5.35512e-13
0.00315689
4.98878e-13
0.00315689
4.6411e-13
0.00315689
4.31189e-13
0.00315689
4.00088e-13
0.00315689
3.70788e-13
0.00315689
3.43261e-13
0.00315689
3.17481e-13
0.00315689
2.93418e-13
0.00315689
2.71029e-13
0.00315689
2.50278e-13
0.00315689
2.31123e-13
0.00315689
2.13526e-13
0.00315689
1.97434e-13
0.00315689
1.82802e-13
0.00315689
1.69578e-13
0.00315689
1.57709e-13
0.00315689
1.47151e-13
0.00315689
1.37845e-13
0.00315689
1.29726e-13
0.00315689
1.22748e-13
0.00315689
1.16854e-13
0.00315689
1.11988e-13
0.00315689
1.08087e-13
0.00315689
1.05093e-13
0.00315689
1.02955e-13
0.00315689
1.01612e-13
0.00315689
1.01004e-13
0.00315689
1.01079e-13
0.00315689
1.01779e-13
0.00315689
1.03052e-13
0.00315689
1.04843e-13
0.00315689
1.07104e-13
0.00315689
1.09778e-13
0.00315689
1.12811e-13
0.00315689
1.16162e-13
0.00315689
1.1978e-13
0.00315689
1.23629e-13
0.00315689
1.27659e-13
0.00315689
1.3182e-13
0.00315689
1.36078e-13
0.00315689
1.40398e-13
0.00315689
1.44746e-13
0.00315689
1.49086e-13
0.00315689
1.53376e-13
0.00315689
1.57592e-13
0.00315689
1.61708e-13
0.00315689
1.65703e-13
0.00315689
1.69541e-13
0.00315689
1.73202e-13
0.00315689
1.76673e-13
0.00315689
1.79931e-13
0.00315689
1.82957e-13
0.00315689
1.85747e-13
0.00315689
1.88276e-13
0.00315689
1.90533e-13
0.00315689
1.92511e-13
0.00315689
1.94209e-13
0.00315689
1.9561e-13
0.00315689
1.96714e-13
0.00315689
1.97522e-13
0.00315689
1.98021e-13
0.00315689
1.98223e-13
0.00315689
1.98124e-13
0.00315689
1.97719e-13
0.00315689
1.97016e-13
0.00315689
1.96015e-13
0.00315689
1.9473e-13
0.00315689
1.93162e-13
0.00315689
1.91315e-13
0.00315689
1.89199e-13
0.00315689
1.86813e-13
0.00315689
1.84175e-13
0.00315689
1.81296e-13
0.00315689
1.78176e-13
0.00315689
1.74832e-13
0.00315689
1.71268e-13
0.00315689
1.67499e-13
0.00315689
1.63539e-13
0.00315689
1.59392e-13
0.00315689
1.55066e-13
0.00315689
1.50574e-13
0.00315689
1.4594e-13
0.00315689
1.4116e-13
0.00315689
1.36246e-13
0.00315689
1.31217e-13
0.00315689
1.26075e-13
0.00315689
1.20837e-13
0.00315689
1.15513e-13
0.00315689
1.10106e-13
0.00315689
1.04628e-13
0.00315689
9.90881e-14
0.00315689
9.35037e-14
0.00315689
8.78811e-14
0.00315689
8.22175e-14
0.00315689
7.65319e-14
0.00315689
7.08316e-14
0.00315689
6.51204e-14
0.00315689
5.94093e-14
0.00315689
5.37083e-14
0.00315689
4.80181e-14
0.00315689
4.23466e-14
0.00315689
3.67042e-14
0.00315689
3.10878e-14
0.00315689
2.5508e-14
0.00315689
1.99738e-14
0.00315689
1.44821e-14
0.00315689
9.04741e-15
0.00315689
3.66431e-15
0.00315689
-1.65768e-15
0.00315689
-6.90562e-15
0.00315689
-1.20948e-14
0.00315689
-1.72096e-14
0.00315689
-2.22481e-14
0.00315689
-2.72108e-14
0.00315689
-3.20836e-14
0.00315689
-3.68725e-14
0.00315689
-4.15774e-14
0.00315689
-4.61948e-14
0.00315689
-5.07203e-14
0.00315689
-5.51394e-14
0.00315689
-5.94659e-14
0.00315689
-6.36913e-14
0.00315689
-6.78153e-14
0.00315689
-7.1831e-14
0.00315689
-7.57322e-14
0.00315689
-7.95335e-14
0.00315689
-8.32212e-14
0.00315689
-8.67972e-14
0.00315689
-9.02616e-14
0.00315689
-9.36021e-14
0.00315689
-9.68323e-14
0.00315689
-9.99495e-14
0.00315689
-1.02946e-13
0.00315689
-1.05825e-13
0.00315689
-1.08581e-13
0.00315689
-1.11235e-13
0.00315689
-1.13776e-13
0.00315689
-1.16209e-13
0.00315689
-1.18539e-13
0.00315689
-1.20759e-13
0.00315689
-1.22899e-13
0.00315689
-1.24952e-13
0.00315689
-1.26934e-13
0.00315689
-1.28858e-13
0.00315689
-1.3072e-13
0.00315689
-1.32558e-13
0.00315689
-1.34382e-13
0.00315689
-1.36212e-13
0.00315689
-1.38077e-13
0.00315689
-1.39995e-13
0.00315689
-1.42014e-13
0.00315689
-1.44163e-13
0.00315689
-1.46477e-13
0.00315689
-1.49006e-13
0.00315689
-1.51798e-13
0.00315689
-1.54917e-13
0.00315689
-1.58426e-13
0.00315689
-1.62394e-13
0.00315689
-1.66897e-13
0.00315689
-1.72019e-13
0.00315689
-1.77867e-13
0.00315689
-1.84537e-13
0.00315689
-1.92155e-13
0.00315689
-2.00844e-13
0.00315689
-2.10732e-13
0.00315689
-2.21989e-13
0.00315689
-2.34771e-13
0.00315689
-2.49265e-13
0.00315689
-2.65659e-13
0.00315689
-2.84157e-13
0.00315689
-3.05016e-13