/*--------------------------------*- C++ -*----------------------------------*\
| =========                 |                                                 |
| \\      /  F ield         | OpenFOAM: The Open Source CFD Toolbox           |
|  \\    /   O peration     | Version:  2112                                  |
|   \\  /    A nd           | Website:  www.openfoam.com                      |
|    \\/     M anipulation  |                                                 |
\*---------------------------------------------------------------------------*/
FoamFile
{
    version     2.0;
    format      ascii;
    arch        "LSB;label=32;scalar=64";
    class       volVectorField;
    location    "5.92";
    object      U;
}
// * * * * * * * * * * * * * * * * * * * * * * * * * * * * * * * * * * * * * //

dimensions      [0 1 -1 0 0 0 0];

internalField   nonuniform List<vector> 
25600
(
(0.0376996 2.54898e-11 0)
(0.0376996 -4.95053e-11 0)
(0.0376996 -8.20906e-11 0)
(0.0376996 -7.79579e-11 0)
(0.0376996 -6.46202e-11 0)
(0.0376996 -5.31657e-11 0)
(0.0376996 -4.38529e-11 0)
(0.0376996 -3.63516e-11 0)
(0.0376996 -3.03402e-11 0)
(0.0376996 -2.54127e-11 0)
(0.0376996 -2.1314e-11 0)
(0.0376996 -1.78905e-11 0)
(0.0376996 -1.50356e-11 0)
(0.0376996 -1.26597e-11 0)
(0.0376996 -1.06816e-11 0)
(0.0376996 -9.02646e-12 0)
(0.0376996 -7.62977e-12 0)
(0.0376996 -6.43762e-12 0)
(0.0376996 -5.40798e-12 0)
(0.0376996 -4.50864e-12 0)
(0.0376996 -3.71599e-12 0)
(0.0376996 -3.01217e-12 0)
(0.0376996 -2.38406e-12 0)
(0.0376996 -1.82111e-12 0)
(0.0376996 -1.3145e-12 0)
(0.0376996 -8.56729e-13 0)
(0.0376996 -4.5143e-13 0)
(0.0376996 -1.17468e-13 0)
(0.0376996 2.0324e-13 0)
(0.0376996 5.06743e-13 0)
(0.0376996 7.80362e-13 0)
(0.0376996 1.02552e-12 0)
(0.0376996 1.24599e-12 0)
(0.0376996 1.44481e-12 0)
(0.0376996 1.62423e-12 0)
(0.0376996 1.78608e-12 0)
(0.0376996 1.932e-12 0)
(0.0376996 2.06342e-12 0)
(0.0376996 2.1815e-12 0)
(0.0376996 2.28737e-12 0)
(0.0376996 2.38191e-12 0)
(0.0376996 2.46593e-12 0)
(0.0376996 2.54022e-12 0)
(0.0376996 2.60541e-12 0)
(0.0376996 2.66214e-12 0)
(0.0376996 2.71092e-12 0)
(0.0376996 2.75227e-12 0)
(0.0376996 2.78663e-12 0)
(0.0376996 2.81445e-12 0)
(0.0376996 2.83612e-12 0)
(0.0376996 2.85203e-12 0)
(0.0376996 2.8625e-12 0)
(0.0376996 2.86783e-12 0)
(0.0376996 2.86838e-12 0)
(0.0376996 2.86449e-12 0)
(0.0376996 2.8562e-12 0)
(0.0376996 2.844e-12 0)
(0.0376996 2.82808e-12 0)
(0.0376996 2.8086e-12 0)
(0.0376996 2.78582e-12 0)
(0.0376996 2.75987e-12 0)
(0.0376996 2.73116e-12 0)
(0.0376996 2.69963e-12 0)
(0.0376996 2.66557e-12 0)
(0.0376996 2.62923e-12 0)
(0.0376996 2.59052e-12 0)
(0.0376996 2.54988e-12 0)
(0.0376996 2.50732e-12 0)
(0.0376996 2.46299e-12 0)
(0.0376996 2.41705e-12 0)
(0.0376996 2.36963e-12 0)
(0.0376996 2.32088e-12 0)
(0.0376996 2.2709e-12 0)
(0.0376996 2.21985e-12 0)
(0.0376996 2.16783e-12 0)
(0.0376996 2.11491e-12 0)
(0.0376996 2.06128e-12 0)
(0.0376996 2.00702e-12 0)
(0.0376996 1.95224e-12 0)
(0.0376996 1.8971e-12 0)
(0.0376996 1.84145e-12 0)
(0.0376996 1.7857e-12 0)
(0.0376996 1.7299e-12 0)
(0.0376996 1.67398e-12 0)
(0.0376996 1.61816e-12 0)
(0.0376996 1.56251e-12 0)
(0.0376996 1.50702e-12 0)
(0.0376996 1.45193e-12 0)
(0.0376996 1.39732e-12 0)
(0.0376996 1.34312e-12 0)
(0.0376996 1.28938e-12 0)
(0.0376996 1.23636e-12 0)
(0.0376996 1.18413e-12 0)
(0.0376996 1.13261e-12 0)
(0.0376996 1.08182e-12 0)
(0.0376996 1.03198e-12 0)
(0.0376996 9.83203e-13 0)
(0.0376996 9.35277e-13 0)
(0.0376996 8.88534e-13 0)
(0.0376996 8.42864e-13 0)
(0.0376996 7.98138e-13 0)
(0.0376996 7.54823e-13 0)
(0.0376996 7.12678e-13 0)
(0.0376996 6.71749e-13 0)
(0.0376996 6.32247e-13 0)
(0.0376996 5.93853e-13 0)
(0.0376996 5.56775e-13 0)
(0.0376996 5.21216e-13 0)
(0.0376996 4.8701e-13 0)
(0.0376996 4.54112e-13 0)
(0.0376996 4.22593e-13 0)
(0.0376996 3.92331e-13 0)
(0.0376996 3.63673e-13 0)
(0.0376996 3.3649e-13 0)
(0.0376996 3.10442e-13 0)
(0.0376996 2.85801e-13 0)
(0.0376996 2.6266e-13 0)
(0.0376996 2.40889e-13 0)
(0.0376996 2.20316e-13 0)
(0.0376996 2.01057e-13 0)
(0.0376996 1.83257e-13 0)
(0.0376996 1.66593e-13 0)
(0.0376996 1.51162e-13 0)
(0.0376996 1.37172e-13 0)
(0.0376996 1.24215e-13 0)
(0.0376996 1.12285e-13 0)
(0.0376996 1.01515e-13 0)
(0.0376996 9.20611e-14 0)
(0.0376996 8.35268e-14 0)
(0.0376996 7.58906e-14 0)
(0.0376996 6.92922e-14 0)
(0.0376996 6.35719e-14 0)
(0.0376996 5.88557e-14 0)
(0.0376996 5.49861e-14 0)
(0.0376996 5.1788e-14 0)
(0.0376996 4.93929e-14 0)
(0.0376996 4.76282e-14 0)
(0.0376996 4.66562e-14 0)
(0.0376996 4.64193e-14 0)
(0.0376996 4.6512e-14 0)
(0.0376996 4.70925e-14 0)
(0.0376996 4.83644e-14 0)
(0.0376996 5.01734e-14 0)
(0.0376996 5.21188e-14 0)
(0.0376996 5.46061e-14 0)
(0.0376996 5.74542e-14 0)
(0.0376996 6.03397e-14 0)
(0.0376996 6.35948e-14 0)
(0.0376996 6.72586e-14 0)
(0.0376996 7.09642e-14 0)
(0.0376996 7.47273e-14 0)
(0.0376996 7.85928e-14 0)
(0.0376996 8.26836e-14 0)
(0.0376996 8.68152e-14 0)
(0.0376996 9.0805e-14 0)
(0.0376996 9.48591e-14 0)
(0.0376996 9.87968e-14 0)
(0.0376996 1.02898e-13 0)
(0.0376996 1.06844e-13 0)
(0.0376996 1.10542e-13 0)
(0.0376996 1.14287e-13 0)
(0.0376996 1.1768e-13 0)
(0.0376996 1.21071e-13 0)
(0.0376996 1.24439e-13 0)
(0.0376996 1.27225e-13 0)
(0.0376996 1.3005e-13 0)
(0.0376996 1.32783e-13 0)
(0.0376996 1.35094e-13 0)
(0.0376996 1.37271e-13 0)
(0.0376996 1.39208e-13 0)
(0.0376996 1.4088e-13 0)
(0.0376996 1.42248e-13 0)
(0.0376996 1.43662e-13 0)
(0.0376996 1.44495e-13 0)
(0.0376996 1.45048e-13 0)
(0.0376996 1.45785e-13 0)
(0.0376996 1.45785e-13 0)
(0.0376996 1.45746e-13 0)
(0.0376996 1.45632e-13 0)
(0.0376996 1.45099e-13 0)
(0.0376996 1.44279e-13 0)
(0.0376996 1.43151e-13 0)
(0.0376996 1.42069e-13 0)
(0.0376996 1.40731e-13 0)
(0.0376996 1.39041e-13 0)
(0.0376996 1.3724e-13 0)
(0.0376996 1.35045e-13 0)
(0.0376996 1.32837e-13 0)
(0.0376996 1.30617e-13 0)
(0.0376996 1.27784e-13 0)
(0.0376996 1.25025e-13 0)
(0.0376996 1.2222e-13 0)
(0.0376996 1.19075e-13 0)
(0.0376996 1.15862e-13 0)
(0.0376996 1.12486e-13 0)
(0.0376996 1.08966e-13 0)
(0.0376996 1.05256e-13 0)
(0.0376996 1.01729e-13 0)
(0.0376996 9.774e-14 0)
(0.0376996 9.3625e-14 0)
(0.0376996 8.98443e-14 0)
(0.0376996 8.55197e-14 0)
(0.0376996 8.12763e-14 0)
(0.0376996 7.71718e-14 0)
(0.0376996 7.26743e-14 0)
(0.0376996 6.81725e-14 0)
(0.0376996 6.36547e-14 0)
(0.0376996 5.91719e-14 0)
(0.0376996 5.46202e-14 0)
(0.0376996 4.98768e-14 0)
(0.0376996 4.522e-14 0)
(0.0376996 4.03602e-14 0)
(0.0376996 3.54609e-14 0)
(0.0376996 3.05868e-14 0)
(0.0376996 2.55103e-14 0)
(0.0376996 2.05516e-14 0)
(0.0376996 1.56086e-14 0)
(0.0376996 1.06202e-14 0)
(0.0376996 5.5161e-15 0)
(0.0376996 5.43317e-16 0)
(0.0376996 -4.23545e-15 0)
(0.0376996 -9.4901e-15 0)
(0.0376996 -1.42633e-14 0)
(0.0376996 -1.94654e-14 0)
(0.0376996 -2.47312e-14 0)
(0.0376996 -2.93906e-14 0)
(0.0376996 -3.47577e-14 0)
(0.0376996 -3.9839e-14 0)
(0.0376996 -4.49472e-14 0)
(0.0376996 -5.03968e-14 0)
(0.0376996 -5.52675e-14 0)
(0.0376996 -6.05712e-14 0)
(0.0376996 -6.60494e-14 0)
(0.0376996 -7.11633e-14 0)
(0.0376996 -7.65391e-14 0)
(0.0376996 -8.18378e-14 0)
(0.0376996 -8.73109e-14 0)
(0.0376996 -9.2801e-14 0)
(0.0376996 -9.82434e-14 0)
(0.0376996 -1.03805e-13 0)
(0.0376996 -1.09245e-13 0)
(0.0376996 -1.14771e-13 0)
(0.0376996 -1.20395e-13 0)
(0.0376996 -1.26222e-13 0)
(0.0376996 -1.31931e-13 0)
(0.0376996 -1.37449e-13 0)
(0.0376996 -1.43503e-13 0)
(0.0376996 -1.49069e-13 0)
(0.0376996 -1.5507e-13 0)
(0.0376996 -1.61186e-13 0)
(0.0376996 -1.66699e-13 0)
(0.0376996 -1.72955e-13 0)
(0.0376996 -1.78956e-13 0)
(0.0376996 -1.84979e-13 0)
(0.0376996 -1.91365e-13 0)
(0.0376996 -1.97181e-13 0)
(0.0376996 -2.03455e-13 0)
(0.0376996 -2.09927e-13 0)
(0.0376996 -2.16047e-13 0)
(0.0376996 -2.22474e-13 0)
(0.0376996 -2.28828e-13 0)
(0.0376996 -2.35395e-13 0)
(0.0376996 -2.42064e-13 0)
(0.0376996 -2.48696e-13 0)
(0.0376996 -2.55568e-13 0)
(0.0376996 -2.62447e-13 0)
(0.0376996 -2.69511e-13 0)
(0.0376996 -2.76853e-13 0)
(0.0376996 -2.84561e-13 0)
(0.0376996 -2.92607e-13 0)
(0.0376996 -3.00845e-13 0)
(0.0376996 -3.09813e-13 0)
(0.0376996 -3.18971e-13 0)
(0.0376996 -3.2936e-13 0)
(0.0376996 -3.40658e-13 0)
(0.0376996 -3.52428e-13 0)
(0.0376996 -3.65985e-13 0)
(0.0376996 -3.80886e-13 0)
(0.0376996 -3.97664e-13 0)
(0.0376996 -4.16661e-13 0)
(0.0376996 -4.37508e-13 0)
(0.0376996 -4.61699e-13 0)
(0.0376996 -4.8914e-13 0)
(0.0376996 -5.19732e-13 0)
(0.0376996 -5.54853e-13 0)
(0.0376996 -5.94466e-13 0)
(0.0376996 -6.39498e-13 0)
(0.0376996 -6.90351e-13 0)
(0.0376996 -7.47706e-13 0)
(0.0376996 -8.11975e-13 0)
(0.0376996 -8.84068e-13 0)
(0.0376996 -9.6519e-13 0)
(0.0376996 -1.05557e-12 0)
(0.0376996 -1.15627e-12 0)
(0.0376996 -1.26837e-12 0)
(0.0376996 -1.39248e-12 0)
(0.0376996 -1.53018e-12 0)
(0.0376996 -1.68173e-12 0)
(0.0376996 -1.84916e-12 0)
(0.0376996 -2.03263e-12 0)
(0.0376996 -2.23197e-12 0)
(0.0376996 -2.44758e-12 0)
(0.0376996 -2.67685e-12 0)
(0.0376996 -2.9149e-12 0)
(0.0376996 -3.15233e-12 0)
(0.0376996 -3.37043e-12 0)
(0.0376996 -3.54003e-12 0)
(0.0376996 -3.61372e-12 0)
(0.0376996 -3.53122e-12 0)
(0.0376996 -3.21856e-12 0)
(0.0376996 -2.56638e-12 0)
(0.0376996 -1.09766e-12 0)
(0.0376996 2.5946e-12 0)
(0.0376996 9.23805e-12 0)
(0.0376996 2.04795e-11 0)
(0.0376996 3.86049e-11 0)
(0.0376996 6.59268e-11 0)
(0.0376996 1.00372e-10 0)
(0.0376996 1.21703e-10 0)
(0.0376996 9.76362e-11 0)
(0.111211 2.92295e-10 0)
(0.111211 -1.25674e-10 0)
(0.111211 -4.06789e-10 0)
(0.111211 -5.07566e-10 0)
(0.111211 -5.07476e-10 0)
(0.111211 -4.73214e-10 0)
(0.111211 -4.29063e-10 0)
(0.111211 -3.82954e-10 0)
(0.111211 -3.3892e-10 0)
(0.111211 -2.98355e-10 0)
(0.111211 -2.61601e-10 0)
(0.111211 -2.28628e-10 0)
(0.111211 -1.99239e-10 0)
(0.111211 -1.73149e-10 0)
(0.111211 -1.50022e-10 0)
(0.111211 -1.29513e-10 0)
(0.111211 -1.1129e-10 0)
(0.111211 -9.50518e-11 0)
(0.111211 -8.0539e-11 0)
(0.111211 -6.75308e-11 0)
(0.111211 -5.58425e-11 0)
(0.111211 -4.532e-11 0)
(0.111211 -3.58336e-11 0)
(0.111211 -2.72729e-11 0)
(0.111211 -1.95424e-11 0)
(0.111211 -1.25593e-11 0)
(0.111211 -6.25659e-12 0)
(0.111211 -5.89414e-13 0)
(0.111211 4.53183e-12 0)
(0.111211 9.16738e-12 0)
(0.111211 1.33506e-11 0)
(0.111211 1.71194e-11 0)
(0.111211 2.05105e-11 0)
(0.111211 2.35575e-11 0)
(0.111211 2.62905e-11 0)
(0.111211 2.87363e-11 0)
(0.111211 3.09194e-11 0)
(0.111211 3.28614e-11 0)
(0.111211 3.45817e-11 0)
(0.111211 3.60982e-11 0)
(0.111211 3.74268e-11 0)
(0.111211 3.85818e-11 0)
(0.111211 3.95763e-11 0)
(0.111211 4.04224e-11 0)
(0.111211 4.11309e-11 0)
(0.111211 4.17119e-11 0)
(0.111211 4.21744e-11 0)
(0.111211 4.25269e-11 0)
(0.111211 4.27771e-11 0)
(0.111211 4.29323e-11 0)
(0.111211 4.2999e-11 0)
(0.111211 4.29836e-11 0)
(0.111211 4.28915e-11 0)
(0.111211 4.27284e-11 0)
(0.111211 4.24991e-11 0)
(0.111211 4.22081e-11 0)
(0.111211 4.18602e-11 0)
(0.111211 4.14593e-11 0)
(0.111211 4.10091e-11 0)
(0.111211 4.05136e-11 0)
(0.111211 3.99759e-11 0)
(0.111211 3.93997e-11 0)
(0.111211 3.87877e-11 0)
(0.111211 3.8143e-11 0)
(0.111211 3.74685e-11 0)
(0.111211 3.67666e-11 0)
(0.111211 3.60402e-11 0)
(0.111211 3.52916e-11 0)
(0.111211 3.45231e-11 0)
(0.111211 3.3737e-11 0)
(0.111211 3.29354e-11 0)
(0.111211 3.21205e-11 0)
(0.111211 3.12942e-11 0)
(0.111211 3.04585e-11 0)
(0.111211 2.96152e-11 0)
(0.111211 2.87659e-11 0)
(0.111211 2.79127e-11 0)
(0.111211 2.7057e-11 0)
(0.111211 2.62004e-11 0)
(0.111211 2.53445e-11 0)
(0.111211 2.44905e-11 0)
(0.111211 2.36402e-11 0)
(0.111211 2.27949e-11 0)
(0.111211 2.19558e-11 0)
(0.111211 2.11242e-11 0)
(0.111211 2.03013e-11 0)
(0.111211 1.9488e-11 0)
(0.111211 1.86859e-11 0)
(0.111211 1.78957e-11 0)
(0.111211 1.71182e-11 0)
(0.111211 1.63544e-11 0)
(0.111211 1.56054e-11 0)
(0.111211 1.48721e-11 0)
(0.111211 1.41548e-11 0)
(0.111211 1.34544e-11 0)
(0.111211 1.27715e-11 0)
(0.111211 1.2107e-11 0)
(0.111211 1.1461e-11 0)
(0.111211 1.08342e-11 0)
(0.111211 1.0227e-11 0)
(0.111211 9.63939e-12 0)
(0.111211 9.07238e-12 0)
(0.111211 8.5258e-12 0)
(0.111211 7.99993e-12 0)
(0.111211 7.49506e-12 0)
(0.111211 7.01085e-12 0)
(0.111211 6.54753e-12 0)
(0.111211 6.10554e-12 0)
(0.111211 5.68455e-12 0)
(0.111211 5.28426e-12 0)
(0.111211 4.90466e-12 0)
(0.111211 4.5454e-12 0)
(0.111211 4.20672e-12 0)
(0.111211 3.88825e-12 0)
(0.111211 3.58921e-12 0)
(0.111211 3.3096e-12 0)
(0.111211 3.04917e-12 0)
(0.111211 2.80739e-12 0)
(0.111211 2.58367e-12 0)
(0.111211 2.37769e-12 0)
(0.111211 2.18904e-12 0)
(0.111211 2.01692e-12 0)
(0.111211 1.86111e-12 0)
(0.111211 1.72117e-12 0)
(0.111211 1.59601e-12 0)
(0.111211 1.48512e-12 0)
(0.111211 1.38809e-12 0)
(0.111211 1.30453e-12 0)
(0.111211 1.23343e-12 0)
(0.111211 1.17409e-12 0)
(0.111211 1.12613e-12 0)
(0.111211 1.08877e-12 0)
(0.111211 1.06156e-12 0)
(0.111211 1.04368e-12 0)
(0.111211 1.03443e-12 0)
(0.111211 1.03325e-12 0)
(0.111211 1.03934e-12 0)
(0.111211 1.05259e-12 0)
(0.111211 1.07211e-12 0)
(0.111211 1.09679e-12 0)
(0.111211 1.12675e-12 0)
(0.111211 1.16124e-12 0)
(0.111211 1.19961e-12 0)
(0.111211 1.24131e-12 0)
(0.111211 1.28589e-12 0)
(0.111211 1.33273e-12 0)
(0.111211 1.38113e-12 0)
(0.111211 1.43138e-12 0)
(0.111211 1.48255e-12 0)
(0.111211 1.53386e-12 0)
(0.111211 1.58541e-12 0)
(0.111211 1.63664e-12 0)
(0.111211 1.68739e-12 0)
(0.111211 1.73721e-12 0)
(0.111211 1.78547e-12 0)
(0.111211 1.83224e-12 0)
(0.111211 1.87719e-12 0)
(0.111211 1.92027e-12 0)
(0.111211 1.96102e-12 0)
(0.111211 1.99903e-12 0)
(0.111211 2.03449e-12 0)
(0.111211 2.06691e-12 0)
(0.111211 2.09652e-12 0)
(0.111211 2.12311e-12 0)
(0.111211 2.14602e-12 0)
(0.111211 2.16598e-12 0)
(0.111211 2.18267e-12 0)
(0.111211 2.19576e-12 0)
(0.111211 2.20552e-12 0)
(0.111211 2.21175e-12 0)
(0.111211 2.21444e-12 0)
(0.111211 2.21355e-12 0)
(0.111211 2.20966e-12 0)
(0.111211 2.20194e-12 0)
(0.111211 2.19078e-12 0)
(0.111211 2.17686e-12 0)
(0.111211 2.15908e-12 0)
(0.111211 2.13842e-12 0)
(0.111211 2.11491e-12 0)
(0.111211 2.0881e-12 0)
(0.111211 2.05831e-12 0)
(0.111211 2.02561e-12 0)
(0.111211 1.99055e-12 0)
(0.111211 1.95293e-12 0)
(0.111211 1.91268e-12 0)
(0.111211 1.8701e-12 0)
(0.111211 1.82499e-12 0)
(0.111211 1.77809e-12 0)
(0.111211 1.72934e-12 0)
(0.111211 1.67814e-12 0)
(0.111211 1.62554e-12 0)
(0.111211 1.57139e-12 0)
(0.111211 1.51558e-12 0)
(0.111211 1.45848e-12 0)
(0.111211 1.39996e-12 0)
(0.111211 1.34018e-12 0)
(0.111211 1.27923e-12 0)
(0.111211 1.21776e-12 0)
(0.111211 1.15501e-12 0)
(0.111211 1.09135e-12 0)
(0.111211 1.0276e-12 0)
(0.111211 9.62758e-13 0)
(0.111211 8.97556e-13 0)
(0.111211 8.32241e-13 0)
(0.111211 7.66264e-13 0)
(0.111211 7.00113e-13 0)
(0.111211 6.338e-13 0)
(0.111211 5.67558e-13 0)
(0.111211 5.01181e-13 0)
(0.111211 4.34656e-13 0)
(0.111211 3.68381e-13 0)
(0.111211 3.01988e-13 0)
(0.111211 2.35863e-13 0)
(0.111211 1.69976e-13 0)
(0.111211 1.04199e-13 0)
(0.111211 3.90584e-14 0)
(0.111211 -2.58471e-14 0)
(0.111211 -9.04128e-14 0)
(0.111211 -1.54681e-13 0)
(0.111211 -2.18312e-13 0)
(0.111211 -2.81079e-13 0)
(0.111211 -3.43964e-13 0)
(0.111211 -4.05807e-13 0)
(0.111211 -4.67624e-13 0)
(0.111211 -5.28932e-13 0)
(0.111211 -5.88763e-13 0)
(0.111211 -6.48884e-13 0)
(0.111211 -7.08143e-13 0)
(0.111211 -7.66791e-13 0)
(0.111211 -8.25147e-13 0)
(0.111211 -8.82059e-13 0)
(0.111211 -9.38861e-13 0)
(0.111211 -9.95196e-13 0)
(0.111211 -1.05043e-12 0)
(0.111211 -1.10522e-12 0)
(0.111211 -1.15918e-12 0)
(0.111211 -1.21267e-12 0)
(0.111211 -1.26548e-12 0)
(0.111211 -1.31757e-12 0)
(0.111211 -1.36899e-12 0)
(0.111211 -1.41941e-12 0)
(0.111211 -1.4694e-12 0)
(0.111211 -1.51884e-12 0)
(0.111211 -1.56792e-12 0)
(0.111211 -1.61622e-12 0)
(0.111211 -1.66349e-12 0)
(0.111211 -1.71099e-12 0)
(0.111211 -1.7574e-12 0)
(0.111211 -1.80393e-12 0)
(0.111211 -1.85031e-12 0)
(0.111211 -1.89551e-12 0)
(0.111211 -1.94161e-12 0)
(0.111211 -1.98752e-12 0)
(0.111211 -2.03357e-12 0)
(0.111211 -2.08045e-12 0)
(0.111211 -2.12712e-12 0)
(0.111211 -2.17519e-12 0)
(0.111211 -2.22467e-12 0)
(0.111211 -2.27515e-12 0)
(0.111211 -2.32774e-12 0)
(0.111211 -2.38235e-12 0)
(0.111211 -2.43997e-12 0)
(0.111211 -2.501e-12 0)
(0.111211 -2.56579e-12 0)
(0.111211 -2.63528e-12 0)
(0.111211 -2.71e-12 0)
(0.111211 -2.79114e-12 0)
(0.111211 -2.87966e-12 0)
(0.111211 -2.97668e-12 0)
(0.111211 -3.08346e-12 0)
(0.111211 -3.20062e-12 0)
(0.111211 -3.33127e-12 0)
(0.111211 -3.47621e-12 0)
(0.111211 -3.63762e-12 0)
(0.111211 -3.8178e-12 0)
(0.111211 -4.01819e-12 0)
(0.111211 -4.24308e-12 0)
(0.111211 -4.49454e-12 0)
(0.111211 -4.77597e-12 0)
(0.111211 -5.09123e-12 0)
(0.111211 -5.44331e-12 0)
(0.111211 -5.83725e-12 0)
(0.111211 -6.2778e-12 0)
(0.111211 -6.76969e-12 0)
(0.111211 -7.31802e-12 0)
(0.111211 -7.92827e-12 0)
(0.111211 -8.60707e-12 0)
(0.111211 -9.36041e-12 0)
(0.111211 -1.01948e-11 0)
(0.111211 -1.11167e-11 0)
(0.111211 -1.2133e-11 0)
(0.111211 -1.32515e-11 0)
(0.111211 -1.44782e-11 0)
(0.111211 -1.58202e-11 0)
(0.111211 -1.72837e-11 0)
(0.111211 -1.88732e-11 0)
(0.111211 -2.05937e-11 0)
(0.111211 -2.24454e-11 0)
(0.111211 -2.44246e-11 0)
(0.111211 -2.6521e-11 0)
(0.111211 -2.87116e-11 0)
(0.111211 -3.09588e-11 0)
(0.111211 -3.3196e-11 0)
(0.111211 -3.53175e-11 0)
(0.111211 -3.7157e-11 0)
(0.111211 -3.84557e-11 0)
(0.111211 -3.88192e-11 0)
(0.111211 -3.76478e-11 0)
(0.111211 -3.40368e-11 0)
(0.111211 -2.66116e-11 0)
(0.111211 -1.32627e-11 0)
(0.111211 9.40964e-12 0)
(0.111211 4.69424e-11 0)
(0.111211 1.06035e-10 0)
(0.111211 1.95387e-10 0)
(0.111211 3.23715e-10 0)
(0.111211 4.91848e-10 0)
(0.111211 6.70299e-10 0)
(0.111211 7.64582e-10 0)
(0.111211 6.45566e-10 0)
(0.18283 6.99985e-10 0)
(0.18283 -1.06099e-10 0)
(0.18283 -7.23661e-10 0)
(0.18283 -1.02263e-09 0)
(0.18283 -1.10281e-09 0)
(0.18283 -1.08402e-09 0)
(0.18283 -1.02107e-09 0)
(0.18283 -9.38353e-10 0)
(0.18283 -8.49719e-10 0)
(0.18283 -7.62009e-10 0)
(0.18283 -6.78467e-10 0)
(0.18283 -6.00576e-10 0)
(0.18283 -5.289e-10 0)
(0.18283 -4.63495e-10 0)
(0.18283 -4.04129e-10 0)
(0.18283 -3.50413e-10 0)
(0.18283 -3.01891e-10 0)
(0.18283 -2.58091e-10 0)
(0.18283 -2.18556e-10 0)
(0.18283 -1.82862e-10 0)
(0.18283 -1.50624e-10 0)
(0.18283 -1.21499e-10 0)
(0.18283 -9.51803e-11 0)
(0.18283 -7.13948e-11 0)
(0.18283 -4.99004e-11 0)
(0.18283 -3.04807e-11 0)
(0.18283 -1.29406e-11 0)
(0.18283 2.8996e-12 0)
(0.18283 1.71761e-11 0)
(0.18283 3.00423e-11 0)
(0.18283 4.16283e-11 0)
(0.18283 5.20469e-11 0)
(0.18283 6.14001e-11 0)
(0.18283 6.97807e-11 0)
(0.18283 7.72723e-11 0)
(0.18283 8.39507e-11 0)
(0.18283 8.98844e-11 0)
(0.18283 9.51354e-11 0)
(0.18283 9.97595e-11 0)
(0.18283 1.03808e-10 0)
(0.18283 1.07325e-10 0)
(0.18283 1.10355e-10 0)
(0.18283 1.12934e-10 0)
(0.18283 1.15098e-10 0)
(0.18283 1.16877e-10 0)
(0.18283 1.18301e-10 0)
(0.18283 1.19396e-10 0)
(0.18283 1.20187e-10 0)
(0.18283 1.20695e-10 0)
(0.18283 1.20942e-10 0)
(0.18283 1.20946e-10 0)
(0.18283 1.20725e-10 0)
(0.18283 1.20295e-10 0)
(0.18283 1.19672e-10 0)
(0.18283 1.18869e-10 0)
(0.18283 1.179e-10 0)
(0.18283 1.16776e-10 0)
(0.18283 1.15511e-10 0)
(0.18283 1.14114e-10 0)
(0.18283 1.12596e-10 0)
(0.18283 1.10966e-10 0)
(0.18283 1.09234e-10 0)
(0.18283 1.07408e-10 0)
(0.18283 1.05496e-10 0)
(0.18283 1.03507e-10 0)
(0.18283 1.01447e-10 0)
(0.18283 9.93247e-11 0)
(0.18283 9.71458e-11 0)
(0.18283 9.49172e-11 0)
(0.18283 9.2645e-11 0)
(0.18283 9.03353e-11 0)
(0.18283 8.79941e-11 0)
(0.18283 8.56268e-11 0)
(0.18283 8.32385e-11 0)
(0.18283 8.08345e-11 0)
(0.18283 7.84197e-11 0)
(0.18283 7.59989e-11 0)
(0.18283 7.35764e-11 0)
(0.18283 7.11568e-11 0)
(0.18283 6.87441e-11 0)
(0.18283 6.63426e-11 0)
(0.18283 6.39559e-11 0)
(0.18283 6.15877e-11 0)
(0.18283 5.9242e-11 0)
(0.18283 5.69217e-11 0)
(0.18283 5.463e-11 0)
(0.18283 5.23702e-11 0)
(0.18283 5.01452e-11 0)
(0.18283 4.79575e-11 0)
(0.18283 4.58094e-11 0)
(0.18283 4.37037e-11 0)
(0.18283 4.16428e-11 0)
(0.18283 3.96283e-11 0)
(0.18283 3.76626e-11 0)
(0.18283 3.5747e-11 0)
(0.18283 3.38831e-11 0)
(0.18283 3.20728e-11 0)
(0.18283 3.0317e-11 0)
(0.18283 2.8617e-11 0)
(0.18283 2.69736e-11 0)
(0.18283 2.53876e-11 0)
(0.18283 2.38599e-11 0)
(0.18283 2.2391e-11 0)
(0.18283 2.09813e-11 0)
(0.18283 1.96307e-11 0)
(0.18283 1.83394e-11 0)
(0.18283 1.71071e-11 0)
(0.18283 1.59344e-11 0)
(0.18283 1.48207e-11 0)
(0.18283 1.37649e-11 0)
(0.18283 1.27669e-11 0)
(0.18283 1.1826e-11 0)
(0.18283 1.09414e-11 0)
(0.18283 1.01124e-11 0)
(0.18283 9.3376e-12 0)
(0.18283 8.61627e-12 0)
(0.18283 7.94688e-12 0)
(0.18283 7.32839e-12 0)
(0.18283 6.75956e-12 0)
(0.18283 6.23881e-12 0)
(0.18283 5.76441e-12 0)
(0.18283 5.33493e-12 0)
(0.18283 4.94938e-12 0)
(0.18283 4.60566e-12 0)
(0.18283 4.30156e-12 0)
(0.18283 4.03588e-12 0)
(0.18283 3.80692e-12 0)
(0.18283 3.61283e-12 0)
(0.18283 3.45159e-12 0)
(0.18283 3.32139e-12 0)
(0.18283 3.22082e-12 0)
(0.18283 3.14766e-12 0)
(0.18283 3.10026e-12 0)
(0.18283 3.07693e-12 0)
(0.18283 3.07553e-12 0)
(0.18283 3.09454e-12 0)
(0.18283 3.13212e-12 0)
(0.18283 3.18703e-12 0)
(0.18283 3.25718e-12 0)
(0.18283 3.34053e-12 0)
(0.18283 3.43604e-12 0)
(0.18283 3.54203e-12 0)
(0.18283 3.65751e-12 0)
(0.18283 3.78047e-12 0)
(0.18283 3.90912e-12 0)
(0.18283 4.04266e-12 0)
(0.18283 4.17954e-12 0)
(0.18283 4.3191e-12 0)
(0.18283 4.45989e-12 0)
(0.18283 4.60031e-12 0)
(0.18283 4.73961e-12 0)
(0.18283 4.87706e-12 0)
(0.18283 5.0118e-12 0)
(0.18283 5.14236e-12 0)
(0.18283 5.26818e-12 0)
(0.18283 5.3891e-12 0)
(0.18283 5.50404e-12 0)
(0.18283 5.61215e-12 0)
(0.18283 5.71355e-12 0)
(0.18283 5.80708e-12 0)
(0.18283 5.89233e-12 0)
(0.18283 5.96927e-12 0)
(0.18283 6.03774e-12 0)
(0.18283 6.09671e-12 0)
(0.18283 6.14637e-12 0)
(0.18283 6.18722e-12 0)
(0.18283 6.21796e-12 0)
(0.18283 6.23938e-12 0)
(0.18283 6.25138e-12 0)
(0.18283 6.25341e-12 0)
(0.18283 6.24565e-12 0)
(0.18283 6.22818e-12 0)
(0.18283 6.20183e-12 0)
(0.18283 6.16604e-12 0)
(0.18283 6.12093e-12 0)
(0.18283 6.06711e-12 0)
(0.18283 6.00415e-12 0)
(0.18283 5.93294e-12 0)
(0.18283 5.85382e-12 0)
(0.18283 5.76617e-12 0)
(0.18283 5.67099e-12 0)
(0.18283 5.5685e-12 0)
(0.18283 5.45885e-12 0)
(0.18283 5.34262e-12 0)
(0.18283 5.22001e-12 0)
(0.18283 5.09112e-12 0)
(0.18283 4.95628e-12 0)
(0.18283 4.81662e-12 0)
(0.18283 4.67145e-12 0)
(0.18283 4.52139e-12 0)
(0.18283 4.3675e-12 0)
(0.18283 4.20911e-12 0)
(0.18283 4.04722e-12 0)
(0.18283 3.8822e-12 0)
(0.18283 3.71379e-12 0)
(0.18283 3.5424e-12 0)
(0.18283 3.36838e-12 0)
(0.18283 3.19272e-12 0)
(0.18283 3.01516e-12 0)
(0.18283 2.83541e-12 0)
(0.18283 2.65474e-12 0)
(0.18283 2.47293e-12 0)
(0.18283 2.29004e-12 0)
(0.18283 2.10673e-12 0)
(0.18283 1.92317e-12 0)
(0.18283 1.73948e-12 0)
(0.18283 1.5556e-12 0)
(0.18283 1.37219e-12 0)
(0.18283 1.18879e-12 0)
(0.18283 1.00612e-12 0)
(0.18283 8.24306e-13 0)
(0.18283 6.42986e-13 0)
(0.18283 4.63309e-13 0)
(0.18283 2.84234e-13 0)
(0.18283 1.06555e-13 0)
(0.18283 -6.90548e-14 0)
(0.18283 -2.44002e-13 0)
(0.18283 -4.17072e-13 0)
(0.18283 -5.88472e-13 0)
(0.18283 -7.5837e-13 0)
(0.18283 -9.25603e-13 0)
(0.18283 -1.09125e-12 0)
(0.18283 -1.25513e-12 0)
(0.18283 -1.41704e-12 0)
(0.18283 -1.57687e-12 0)
(0.18283 -1.73375e-12 0)
(0.18283 -1.88893e-12 0)
(0.18283 -2.04199e-12 0)
(0.18283 -2.19263e-12 0)
(0.18283 -2.34081e-12 0)
(0.18283 -2.48622e-12 0)
(0.18283 -2.62956e-12 0)
(0.18283 -2.77038e-12 0)
(0.18283 -2.90881e-12 0)
(0.18283 -3.04479e-12 0)
(0.18283 -3.17794e-12 0)
(0.18283 -3.3088e-12 0)
(0.18283 -3.43705e-12 0)
(0.18283 -3.56317e-12 0)
(0.18283 -3.68654e-12 0)
(0.18283 -3.80688e-12 0)
(0.18283 -3.92587e-12 0)
(0.18283 -4.04225e-12 0)
(0.18283 -4.15676e-12 0)
(0.18283 -4.26951e-12 0)
(0.18283 -4.37942e-12 0)
(0.18283 -4.48867e-12 0)
(0.18283 -4.5964e-12 0)
(0.18283 -4.70308e-12 0)
(0.18283 -4.80954e-12 0)
(0.18283 -4.91469e-12 0)
(0.18283 -5.02085e-12 0)
(0.18283 -5.12797e-12 0)
(0.18283 -5.23612e-12 0)
(0.18283 -5.3468e-12 0)
(0.18283 -5.46003e-12 0)
(0.18283 -5.57765e-12 0)
(0.18283 -5.70048e-12 0)
(0.18283 -5.82927e-12 0)
(0.18283 -5.96574e-12 0)
(0.18283 -6.11103e-12 0)
(0.18283 -6.26735e-12 0)
(0.18283 -6.43671e-12 0)
(0.18283 -6.6211e-12 0)
(0.18283 -6.82254e-12 0)
(0.18283 -7.04357e-12 0)
(0.18283 -7.28801e-12 0)
(0.18283 -7.55793e-12 0)
(0.18283 -7.85806e-12 0)
(0.18283 -8.19176e-12 0)
(0.18283 -8.56233e-12 0)
(0.18283 -8.97625e-12 0)
(0.18283 -9.43783e-12 0)
(0.18283 -9.953e-12 0)
(0.18283 -1.05278e-11 0)
(0.18283 -1.1168e-11 0)
(0.18283 -1.18829e-11 0)
(0.18283 -1.26795e-11 0)
(0.18283 -1.35656e-11 0)
(0.18283 -1.45517e-11 0)
(0.18283 -1.56468e-11 0)
(0.18283 -1.68624e-11 0)
(0.18283 -1.82097e-11 0)
(0.18283 -1.97004e-11 0)
(0.18283 -2.13469e-11 0)
(0.18283 -2.31626e-11 0)
(0.18283 -2.51622e-11 0)
(0.18283 -2.73589e-11 0)
(0.18283 -2.9767e-11 0)
(0.18283 -3.24006e-11 0)
(0.18283 -3.52728e-11 0)
(0.18283 -3.83968e-11 0)
(0.18283 -4.1783e-11 0)
(0.18283 -4.54413e-11 0)
(0.18283 -4.93763e-11 0)
(0.18283 -5.35873e-11 0)
(0.18283 -5.80693e-11 0)
(0.18283 -6.28039e-11 0)
(0.18283 -6.77588e-11 0)
(0.18283 -7.28802e-11 0)
(0.18283 -7.80818e-11 0)
(0.18283 -8.32343e-11 0)
(0.18283 -8.81375e-11 0)
(0.18283 -9.24917e-11 0)
(0.18283 -9.58506e-11 0)
(0.18283 -9.75452e-11 0)
(0.18283 -9.6579e-11 0)
(0.18283 -9.14631e-11 0)
(0.18283 -7.99737e-11 0)
(0.18283 -5.88007e-11 0)
(0.18283 -2.30523e-11 0)
(0.18283 3.43248e-11 0)
(0.18283 1.22912e-10 0)
(0.18283 2.55622e-10 0)
(0.18283 4.46882e-10 0)
(0.18283 7.07714e-10 0)
(0.18283 1.03218e-09 0)
(0.18283 1.36042e-09 0)
(0.18283 1.53318e-09 0)
(0.18283 1.33246e-09 0)
(0.252551 1.14351e-09 0)
(0.252551 3.88747e-11 0)
(0.252551 -8.97867e-10 0)
(0.252551 -1.43498e-09 0)
(0.252551 -1.6548e-09 0)
(0.252551 -1.70291e-09 0)
(0.252551 -1.65909e-09 0)
(0.252551 -1.56485e-09 0)
(0.252551 -1.44636e-09 0)
(0.252551 -1.31862e-09 0)
(0.252551 -1.19004e-09 0)
(0.252551 -1.06533e-09 0)
(0.252551 -9.47048e-10 0)
(0.252551 -8.3647e-10 0)
(0.252551 -7.34083e-10 0)
(0.252551 -6.39894e-10 0)
(0.252551 -5.53631e-10 0)
(0.252551 -4.74863e-10 0)
(0.252551 -4.03085e-10 0)
(0.252551 -3.37766e-10 0)
(0.252551 -2.78385e-10 0)
(0.252551 -2.24441e-10 0)
(0.252551 -1.75469e-10 0)
(0.252551 -1.31037e-10 0)
(0.252551 -9.07485e-11 0)
(0.252551 -5.42432e-11 0)
(0.252551 -2.11909e-11 0)
(0.252551 8.71133e-12 0)
(0.252551 3.57384e-11 0)
(0.252551 6.01319e-11 0)
(0.252551 8.21203e-11 0)
(0.252551 1.0191e-10 0)
(0.252551 1.19687e-10 0)
(0.252551 1.35622e-10 0)
(0.252551 1.49869e-10 0)
(0.252551 1.62566e-10 0)
(0.252551 1.73843e-10 0)
(0.252551 1.83814e-10 0)
(0.252551 1.92584e-10 0)
(0.252551 2.00248e-10 0)
(0.252551 2.06895e-10 0)
(0.252551 2.12604e-10 0)
(0.252551 2.17446e-10 0)
(0.252551 2.21489e-10 0)
(0.252551 2.24792e-10 0)
(0.252551 2.27412e-10 0)
(0.252551 2.29398e-10 0)
(0.252551 2.30799e-10 0)
(0.252551 2.31657e-10 0)
(0.252551 2.32012e-10 0)
(0.252551 2.319e-10 0)
(0.252551 2.31357e-10 0)
(0.252551 2.30413e-10 0)
(0.252551 2.29098e-10 0)
(0.252551 2.27439e-10 0)
(0.252551 2.25462e-10 0)
(0.252551 2.23192e-10 0)
(0.252551 2.2065e-10 0)
(0.252551 2.17858e-10 0)
(0.252551 2.14835e-10 0)
(0.252551 2.11601e-10 0)
(0.252551 2.08174e-10 0)
(0.252551 2.0457e-10 0)
(0.252551 2.00805e-10 0)
(0.252551 1.96894e-10 0)
(0.252551 1.92853e-10 0)
(0.252551 1.88695e-10 0)
(0.252551 1.84433e-10 0)
(0.252551 1.8008e-10 0)
(0.252551 1.75649e-10 0)
(0.252551 1.7115e-10 0)
(0.252551 1.66595e-10 0)
(0.252551 1.61996e-10 0)
(0.252551 1.57361e-10 0)
(0.252551 1.52701e-10 0)
(0.252551 1.48026e-10 0)
(0.252551 1.43345e-10 0)
(0.252551 1.38666e-10 0)
(0.252551 1.33998e-10 0)
(0.252551 1.29349e-10 0)
(0.252551 1.24726e-10 0)
(0.252551 1.20137e-10 0)
(0.252551 1.15589e-10 0)
(0.252551 1.11089e-10 0)
(0.252551 1.06644e-10 0)
(0.252551 1.02258e-10 0)
(0.252551 9.79383e-11 0)
(0.252551 9.369e-11 0)
(0.252551 8.9518e-11 0)
(0.252551 8.54269e-11 0)
(0.252551 8.14214e-11 0)
(0.252551 7.75057e-11 0)
(0.252551 7.36836e-11 0)
(0.252551 6.99583e-11 0)
(0.252551 6.63331e-11 0)
(0.252551 6.28106e-11 0)
(0.252551 5.93939e-11 0)
(0.252551 5.60849e-11 0)
(0.252551 5.28856e-11 0)
(0.252551 4.97974e-11 0)
(0.252551 4.68218e-11 0)
(0.252551 4.39601e-11 0)
(0.252551 4.12126e-11 0)
(0.252551 3.85802e-11 0)
(0.252551 3.6063e-11 0)
(0.252551 3.36604e-11 0)
(0.252551 3.13723e-11 0)
(0.252551 2.91986e-11 0)
(0.252551 2.71383e-11 0)
(0.252551 2.51898e-11 0)
(0.252551 2.33521e-11 0)
(0.252551 2.16233e-11 0)
(0.252551 2.00024e-11 0)
(0.252551 1.84872e-11 0)
(0.252551 1.70753e-11 0)
(0.252551 1.57647e-11 0)
(0.252551 1.45527e-11 0)
(0.252551 1.34372e-11 0)
(0.252551 1.2415e-11 0)
(0.252551 1.14832e-11 0)
(0.252551 1.06388e-11 0)
(0.252551 9.87871e-12 0)
(0.252551 9.2003e-12 0)
(0.252551 8.59991e-12 0)
(0.252551 8.07357e-12 0)
(0.252551 7.61842e-12 0)
(0.252551 7.23104e-12 0)
(0.252551 6.90813e-12 0)
(0.252551 6.64582e-12 0)
(0.252551 6.44043e-12 0)
(0.252551 6.28893e-12 0)
(0.252551 6.18754e-12 0)
(0.252551 6.13283e-12 0)
(0.252551 6.12111e-12 0)
(0.252551 6.14919e-12 0)
(0.252551 6.21393e-12 0)
(0.252551 6.31161e-12 0)
(0.252551 6.43948e-12 0)
(0.252551 6.59403e-12 0)
(0.252551 6.77172e-12 0)
(0.252551 6.9702e-12 0)
(0.252551 7.18635e-12 0)
(0.252551 7.41781e-12 0)
(0.252551 7.66151e-12 0)
(0.252551 7.91423e-12 0)
(0.252551 8.17399e-12 0)
(0.252551 8.43846e-12 0)
(0.252551 8.70566e-12 0)
(0.252551 8.97334e-12 0)
(0.252551 9.23884e-12 0)
(0.252551 9.50041e-12 0)
(0.252551 9.75669e-12 0)
(0.252551 1.00062e-11 0)
(0.252551 1.02468e-11 0)
(0.252551 1.04771e-11 0)
(0.252551 1.06963e-11 0)
(0.252551 1.09028e-11 0)
(0.252551 1.10957e-11 0)
(0.252551 1.12745e-11 0)
(0.252551 1.14376e-11 0)
(0.252551 1.15842e-11 0)
(0.252551 1.17142e-11 0)
(0.252551 1.1827e-11 0)
(0.252551 1.19218e-11 0)
(0.252551 1.19987e-11 0)
(0.252551 1.20574e-11 0)
(0.252551 1.20971e-11 0)
(0.252551 1.21189e-11 0)
(0.252551 1.2122e-11 0)
(0.252551 1.21062e-11 0)
(0.252551 1.20722e-11 0)
(0.252551 1.20197e-11 0)
(0.252551 1.19498e-11 0)
(0.252551 1.18623e-11 0)
(0.252551 1.17574e-11 0)
(0.252551 1.16361e-11 0)
(0.252551 1.14977e-11 0)
(0.252551 1.13437e-11 0)
(0.252551 1.11746e-11 0)
(0.252551 1.09907e-11 0)
(0.252551 1.07925e-11 0)
(0.252551 1.05804e-11 0)
(0.252551 1.03557e-11 0)
(0.252551 1.01188e-11 0)
(0.252551 9.8702e-12 0)
(0.252551 9.6102e-12 0)
(0.252551 9.33963e-12 0)
(0.252551 9.06007e-12 0)
(0.252551 8.77129e-12 0)
(0.252551 8.47375e-12 0)
(0.252551 8.16876e-12 0)
(0.252551 7.85664e-12 0)
(0.252551 7.53828e-12 0)