# Probe 0 (3.5 0.5 0.05)
#       Probe             0
#        Time
        0.001   -2.9892e-14
        0.002  -1.43457e-06
        0.003  -2.52048e-11
        0.004  -4.83862e-08
        0.005  -3.10729e-08
        0.006  -2.60816e-08
        0.007   -2.2058e-08
        0.008  -1.94633e-08
        0.009  -1.78416e-08
         0.01  -1.68889e-08
        0.011  -1.62853e-08
        0.012  -1.58266e-08
        0.013  -1.78954e-08
        0.014  -1.58013e-08
        0.015  -1.30082e-08
        0.016  -1.39814e-08
        0.017  -1.43641e-08
        0.018  -1.47507e-08
        0.019  -1.46534e-08
         0.02  -1.46289e-08
        0.021  -1.46066e-08
        0.022  -1.46149e-08
        0.023  -1.45823e-08
        0.024  -1.45541e-08
        0.025  -1.45282e-08
        0.026  -1.45023e-08
        0.027  -1.44817e-08
        0.028  -1.44566e-08
        0.029  -1.44287e-08
         0.03  -1.44008e-08
        0.031  -1.43717e-08
        0.032  -1.43406e-08
        0.033   -1.4309e-08
        0.034  -1.42762e-08
        0.035  -1.42381e-08
        0.036  -1.42009e-08
        0.037  -1.41603e-08
        0.038  -1.41191e-08
        0.039   6.41016e-08
         0.04   5.68908e-08
        0.041   5.30509e-08
        0.042   4.88129e-08
        0.043   4.45292e-08
        0.044   4.01788e-08
        0.045   3.57827e-08
        0.046   3.12853e-08
        0.047   2.67551e-08
        0.048   2.22408e-08
        0.049   1.77808e-08
         0.05   1.33632e-08
        0.051   9.14442e-09
        0.052   4.91508e-09
        0.053   7.82188e-10
        0.054  -3.12927e-09
        0.055  -7.01972e-09
        0.056  -1.07906e-08
        0.057  -1.43629e-08
        0.058  -1.79317e-08
        0.059  -2.15543e-08
         0.06  -2.47596e-08
        0.061  -2.84522e-08
        0.062  -3.16057e-08
        0.063  -3.46259e-08
        0.064  -3.75468e-08
        0.065  -4.03724e-08
        0.066  -4.31001e-08
        0.067  -4.57358e-08
        0.068  -4.82695e-08
        0.069  -5.07199e-08
         0.07  -5.30627e-08
        0.071  -5.54002e-08
        0.072  -5.75933e-08
        0.073  -5.97072e-08
        0.074  -6.17445e-08
        0.075  -6.36899e-08
        0.076  -6.55885e-08
        0.077  -6.74063e-08
        0.078  -6.91536e-08
        0.079  -7.08324e-08
         0.08  -7.24396e-08
        0.081  -7.39704e-08
        0.082  -7.53825e-08
        0.083  -7.67377e-08
        0.084  -7.84585e-08
        0.085  -7.97642e-08
        0.086   -8.1013e-08
        0.087  -8.22119e-08
        0.088  -8.33606e-08
        0.089  -8.44574e-08
         0.09  -8.54463e-08
        0.091  -8.65306e-08
        0.092  -8.75978e-08
        0.093  -8.84983e-08
        0.094  -8.93773e-08
        0.095  -9.01843e-08
        0.096  -9.09939e-08
        0.097  -9.17666e-08
        0.098  -9.25026e-08
        0.099  -9.32039e-08
          0.1  -9.38712e-08
        0.101  -9.45047e-08
        0.102   -9.5106e-08
        0.103  -9.56758e-08
        0.104   -9.6214e-08
        0.105  -9.67183e-08
        0.106  -9.71746e-08
        0.107  -9.75705e-08
        0.108  -9.81715e-08
        0.109   -9.8573e-08
         0.11  -9.89475e-08
        0.111  -9.93004e-08
        0.112  -9.96247e-08
        0.113  -9.99395e-08
        0.114  -1.00228e-07
        0.115    -1.005e-07
        0.116  -1.00739e-07
        0.117   -1.0097e-07
        0.118  -1.01125e-07
        0.119  -1.01408e-07
         0.12  -1.01599e-07
        0.121  -1.01763e-07
        0.122   -1.0191e-07
        0.123  -1.02041e-07
        0.124  -1.02158e-07
        0.125   -1.0226e-07
        0.126  -1.02345e-07
        0.127  -1.02427e-07
        0.128  -1.02486e-07
        0.129  -1.02535e-07
         0.13  -1.02582e-07
        0.131  -1.02599e-07
        0.132  -1.02604e-07
        0.133  -1.02582e-07
        0.134  -1.02583e-07
        0.135  -1.02562e-07
        0.136  -1.02524e-07
        0.137  -1.02457e-07
        0.138  -1.02471e-07
        0.139  -1.02408e-07
         0.14  -1.02346e-07
        0.141   -1.0227e-07
        0.142  -1.02187e-07
        0.143  -1.02095e-07
        0.144  -1.01996e-07
        0.145   -1.0189e-07
        0.146  -1.01775e-07
        0.147  -1.01647e-07
        0.148  -1.01518e-07
        0.149  -1.01409e-07
         0.15  -1.01269e-07
        0.151  -1.01127e-07
        0.152  -1.00978e-07
        0.153  -1.00824e-07
        0.154  -1.00664e-07
        0.155    -1.005e-07
        0.156   -1.0033e-07
        0.157  -1.00156e-07
        0.158  -9.99808e-08
        0.159  -9.97992e-08
         0.16  -9.96232e-08
        0.161  -9.94256e-08
        0.162  -9.92386e-08
        0.163   -9.9037e-08
        0.164   -9.8837e-08
        0.165  -9.86338e-08
        0.166  -9.84353e-08
        0.167  -9.82098e-08
        0.168  -9.79944e-08
        0.169  -9.77716e-08
         0.17  -9.75426e-08
        0.171  -9.73594e-08
        0.172  -9.71289e-08
        0.173  -9.69015e-08
        0.174   -9.6664e-08
        0.175  -9.64369e-08
        0.176  -9.62059e-08
        0.177  -9.59706e-08
        0.178  -9.57321e-08
        0.179  -9.54706e-08
         0.18  -9.52693e-08
        0.181  -9.50201e-08
        0.182  -9.47803e-08
        0.183  -9.44645e-08
        0.184  -9.42231e-08
        0.185  -9.39777e-08
        0.186  -9.37303e-08
        0.187  -9.34807e-08
        0.188  -9.32337e-08
        0.189  -9.29848e-08
         0.19  -9.27339e-08
        0.191  -9.25177e-08
        0.192  -9.22634e-08
        0.193  -9.20104e-08
        0.194  -9.17569e-08
        0.195  -9.15023e-08
        0.196  -9.12463e-08
        0.197  -9.09928e-08
        0.198  -9.07376e-08
        0.199  -9.04807e-08
          0.2  -9.02263e-08
        0.201  -8.99649e-08
        0.202  -8.97069e-08
        0.203  -8.94469e-08
        0.204  -8.91845e-08
        0.205  -8.89378e-08
        0.206  -8.86778e-08
        0.207  -8.84168e-08
        0.208  -8.81548e-08
        0.209  -8.78971e-08
         0.21  -8.76497e-08
        0.211   -8.7388e-08
        0.212  -8.71409e-08
        0.213  -8.68931e-08
        0.214  -8.66385e-08
        0.215  -8.63792e-08
        0.216  -8.61202e-08
        0.217  -8.58618e-08
        0.218  -8.56016e-08
        0.219  -8.53398e-08
         0.22  -8.50809e-08
        0.221  -8.48119e-08
        0.222  -8.45641e-08
        0.223  -8.43204e-08
        0.224  -8.40908e-08
        0.225  -8.38352e-08
        0.226  -8.35813e-08
        0.227   -8.3329e-08
        0.228  -8.30762e-08
        0.229  -8.28243e-08
         0.23  -8.25617e-08
        0.231  -8.23163e-08
        0.232  -8.20665e-08
        0.233   -8.1819e-08
        0.234  -8.15684e-08
        0.235  -8.13202e-08
        0.236  -8.10723e-08
        0.237  -8.08255e-08
        0.238  -8.05787e-08
        0.239  -8.03325e-08
         0.24  -8.00909e-08
        0.241  -7.98471e-08
        0.242  -7.96029e-08
        0.243  -7.93603e-08
        0.244   -7.9117e-08
        0.245  -7.88684e-08
        0.246  -7.86397e-08
        0.247  -7.83993e-08
        0.248  -7.81592e-08
        0.249  -7.79207e-08
         0.25  -7.76829e-08
        0.251  -7.74445e-08
        0.252  -7.72092e-08
        0.253  -7.69742e-08
        0.254  -7.67392e-08
        0.255  -7.65042e-08
        0.256  -7.62726e-08
        0.257  -7.60445e-08
        0.258  -7.58152e-08
        0.259  -7.55846e-08
         0.26  -7.53554e-08
        0.261  -7.51269e-08
        0.262  -7.49021e-08
        0.263  -7.46768e-08
        0.264  -7.44503e-08
        0.265  -7.42251e-08
        0.266  -7.40004e-08
        0.267  -7.37773e-08
        0.268  -7.35539e-08
        0.269  -7.33317e-08
         0.27  -7.31113e-08
        0.271   -7.2891e-08
        0.272  -7.26715e-08
        0.273  -7.24528e-08
        0.274  -7.22333e-08
        0.275  -7.20199e-08
        0.276  -7.18038e-08
        0.277  -7.15884e-08
        0.278  -7.13745e-08
        0.279  -7.11592e-08
         0.28  -7.09493e-08
        0.281  -7.07378e-08
        0.282  -7.05276e-08
        0.283  -7.03177e-08
        0.284  -7.01083e-08
        0.285  -6.98991e-08
        0.286  -6.96938e-08
        0.287  -6.94871e-08
        0.288  -6.92823e-08
        0.289  -6.90771e-08
         0.29  -6.88718e-08
        0.291  -6.86708e-08
        0.292   -6.8469e-08
        0.293  -6.82677e-08
        0.294  -6.80671e-08
        0.295  -6.78679e-08
        0.296  -6.76694e-08
        0.297  -6.74718e-08
        0.298  -6.72746e-08
        0.299  -6.70791e-08
          0.3  -6.68832e-08
        0.301  -6.66893e-08
        0.302  -6.64953e-08
        0.303  -6.63025e-08
        0.304  -6.61117e-08
        0.305  -6.59202e-08
        0.306  -6.57295e-08
        0.307  -6.55413e-08
        0.308  -6.53523e-08
        0.309  -6.51646e-08
         0.31  -6.49769e-08
        0.311  -6.47926e-08
        0.312  -6.46079e-08
        0.313  -6.44225e-08
        0.314  -6.42389e-08
        0.315  -6.40569e-08
        0.316  -6.38759e-08
        0.317   -6.3695e-08
        0.318  -6.35151e-08
        0.319  -6.33334e-08
         0.32  -6.31593e-08
        0.321  -6.29825e-08
        0.322  -6.28077e-08
        0.323  -6.26374e-08
        0.324  -6.24548e-08
        0.325  -6.22708e-08
        0.326   -6.2085e-08
        0.327  -6.19144e-08
        0.328  -6.17446e-08
        0.329  -6.15745e-08
         0.33  -6.14048e-08
        0.331  -6.12354e-08
        0.332  -6.10679e-08
        0.333  -6.09004e-08
        0.334  -6.07318e-08
        0.335  -6.05655e-08
        0.336  -6.03995e-08
        0.337  -6.02347e-08
        0.338  -6.00703e-08
        0.339  -5.99069e-08
         0.34  -5.97447e-08
        0.341  -5.95825e-08
        0.342  -5.94221e-08
        0.343  -5.92624e-08
        0.344  -5.91042e-08
        0.345  -5.89478e-08
        0.346  -5.87968e-08
        0.347  -5.86283e-08
        0.348  -5.84616e-08
        0.349   -5.8285e-08
         0.35  -5.81303e-08
        0.351  -5.79789e-08
        0.352   -5.7827e-08
        0.353  -5.76747e-08
        0.354  -5.75208e-08
        0.355  -5.73719e-08
        0.356  -5.72201e-08
        0.357  -5.70693e-08
        0.358  -5.69192e-08
        0.359  -5.67715e-08
         0.36  -5.66223e-08
        0.361  -5.64745e-08
        0.362  -5.63268e-08
        0.363  -5.61803e-08
        0.364  -5.60339e-08
        0.365  -5.58882e-08
        0.366  -5.57434e-08
        0.367  -5.55988e-08
        0.368  -5.54547e-08
        0.369  -5.53125e-08
         0.37    -5.517e-08
        0.371  -5.50287e-08
        0.372  -5.48873e-08
        0.373  -5.47467e-08
        0.374  -5.46064e-08
        0.375  -5.44678e-08
        0.376  -5.43291e-08
        0.377  -5.41913e-08
        0.378  -5.40547e-08
        0.379  -5.39213e-08
         0.38  -5.37795e-08
        0.381  -5.36394e-08
        0.382  -5.35044e-08
        0.383   -5.3375e-08
        0.384   -5.3239e-08
        0.385  -5.31069e-08
        0.386  -5.29743e-08
        0.387  -5.28408e-08
        0.388  -5.27117e-08
        0.389  -5.25802e-08
         0.39  -5.24484e-08
        0.391  -5.23211e-08
        0.392   -5.2191e-08
        0.393  -5.20625e-08
        0.394  -5.19344e-08
        0.395  -5.18071e-08
        0.396  -5.16801e-08
        0.397  -5.15536e-08
        0.398  -5.14275e-08
        0.399  -5.13608e-08
          0.4  -5.12358e-08
        0.401  -5.11123e-08
        0.402  -5.09895e-08
        0.403  -5.08674e-08
        0.404  -5.07457e-08
        0.405  -5.06245e-08
        0.406  -5.05039e-08
        0.407  -5.03833e-08
        0.408   -5.0264e-08
        0.409  -5.01443e-08
         0.41  -5.00262e-08
        0.411  -4.99076e-08
        0.412  -4.97896e-08
        0.413  -4.96727e-08
        0.414  -3.95102e-08
        0.415  -3.99082e-08
        0.416  -3.96901e-08
        0.417  -3.95442e-08
        0.418  -3.94077e-08
        0.419  -3.92817e-08
         0.42  -3.91652e-08
        0.421  -3.90541e-08
        0.422  -3.89492e-08
        0.423  -3.88481e-08
        0.424  -3.87501e-08
        0.425  -3.86566e-08
        0.426  -3.85631e-08
        0.427  -3.84727e-08
        0.428  -3.83841e-08
        0.429  -3.82963e-08
         0.43  -3.82098e-08
        0.431  -3.81243e-08
        0.432  -3.80398e-08
        0.433  -3.79564e-08
        0.434  -3.78733e-08
        0.435  -3.77913e-08
        0.436  -3.77092e-08
        0.437  -3.76284e-08
        0.438  -3.75478e-08
        0.439  -3.74678e-08
         0.44  -3.73887e-08
        0.441  -3.73093e-08
        0.442  -3.72307e-08
        0.443  -3.71526e-08
        0.444  -3.70751e-08
        0.445  -3.69973e-08
        0.446  -3.69205e-08
        0.447  -3.68438e-08
        0.448   -3.6767e-08
        0.449  -3.66919e-08
         0.45  -3.66157e-08
        0.451  -3.65412e-08
        0.452  -3.64656e-08
        0.453  -3.63913e-08
        0.454  -3.63173e-08
        0.455  -3.62436e-08
        0.456  -3.61697e-08
        0.457  -3.60963e-08
        0.458  -3.60236e-08
        0.459  -3.59509e-08
         0.46  -3.58784e-08
        0.461  -3.58064e-08
        0.462  -3.57352e-08
        0.463  -3.56632e-08
        0.464  -3.55924e-08
        0.465  -3.55218e-08
        0.466  -3.54515e-08
        0.467  -3.53807e-08
        0.468  -3.53116e-08
        0.469  -3.52411e-08
         0.47  -3.51723e-08
        0.471  -3.51031e-08
        0.472  -3.50344e-08
        0.473  -3.49659e-08
        0.474  -3.48976e-08
        0.475  -3.48301e-08
        0.476  -3.47617e-08
        0.477  -3.46955e-08
        0.478  -3.46281e-08
        0.479  -3.45614e-08
         0.48  -3.45025e-08
        0.481  -3.44318e-08
        0.482  -3.43686e-08
        0.483  -3.43087e-08
        0.484   -3.4234e-08
        0.485  -3.41604e-08
        0.486  -3.40972e-08
        0.487  -3.40337e-08
        0.488  -3.39699e-08
        0.489  -3.39071e-08
         0.49  -3.38433e-08
        0.491  -3.37809e-08
        0.492  -3.37189e-08
        0.493  -3.36564e-08
        0.494  -3.35933e-08
        0.495  -3.35263e-08
        0.496  -3.34625e-08
        0.497  -3.33991e-08
        0.498  -3.33362e-08
        0.499  -3.32731e-08
          0.5  -3.32102e-08
        0.501  -3.31389e-08
        0.502  -3.30771e-08
        0.503  -3.30168e-08
        0.504   -3.2954e-08
        0.505  -3.28926e-08
        0.506  -3.28315e-08
        0.507  -3.27704e-08
        0.508  -3.27099e-08
        0.509  -3.26499e-08
         0.51  -3.25905e-08
        0.511  -3.25307e-08
        0.512  -3.24723e-08
        0.513  -3.24166e-08
        0.514  -3.23585e-08
        0.515  -3.22885e-08
        0.516  -3.22252e-08
        0.517  -3.21684e-08
        0.518  -3.21123e-08
        0.519  -3.20545e-08
         0.52  -3.19966e-08
        0.521  -3.19379e-08
        0.522   -3.1881e-08
        0.523   -3.1824e-08
        0.524  -3.17667e-08
        0.525  -3.17098e-08
        0.526   -3.1653e-08
        0.527  -3.15964e-08
        0.528  -3.15405e-08
        0.529  -3.14839e-08
         0.53  -3.14282e-08
        0.531  -3.13725e-08
        0.532  -3.13165e-08
        0.533  -3.12105e-08
        0.534  -3.11575e-08
        0.535  -3.11017e-08
        0.536  -3.10463e-08
        0.537  -3.09918e-08
        0.538  -3.09364e-08
        0.539  -3.08822e-08
         0.54  -3.08277e-08
        0.541  -3.07728e-08
        0.542  -3.07198e-08
        0.543  -3.06662e-08
        0.544  -3.06131e-08
        0.545  -3.05593e-08
        0.546  -3.05091e-08
        0.547  -3.04551e-08
        0.548  -3.04025e-08
        0.549  -3.03508e-08
         0.55  -3.03013e-08
        0.551  -3.02459e-08
        0.552  -3.01897e-08
        0.553  -3.01379e-08
        0.554  -3.00871e-08
        0.555  -3.00359e-08
        0.556  -2.99852e-08
        0.557  -2.99335e-08
        0.558  -2.98836e-08
        0.559   -2.9832e-08
         0.56   -2.9782e-08
        0.561  -2.97316e-08
        0.562  -2.96811e-08
        0.563  -2.96317e-08
        0.564  -2.95811e-08
        0.565   -2.9532e-08
        0.566  -2.94826e-08
        0.567  -2.94324e-08
        0.568  -2.93837e-08
        0.569  -2.93343e-08
         0.57  -2.92861e-08
        0.571  -2.92366e-08
        0.572  -2.91883e-08
        0.573  -2.91364e-08
        0.574  -2.90903e-08
        0.575  -2.90417e-08
        0.576  -2.89942e-08
        0.577   -2.8946e-08
        0.578  -2.88982e-08
        0.579  -2.88513e-08
         0.58  -2.88034e-08
        0.581   -2.8756e-08
        0.582  -2.87092e-08
        0.583  -2.86625e-08
        0.584  -2.86156e-08
        0.585  -2.85689e-08
        0.586  -2.85226e-08
        0.587  -2.84765e-08
        0.588  -2.84301e-08
        0.589   -2.8384e-08
         0.59  -2.83377e-08
        0.591  -2.82923e-08
        0.592  -2.82472e-08
        0.593  -2.82009e-08
        0.594  -2.81559e-08
        0.595  -2.81106e-08
        0.596  -2.80664e-08
        0.597   -2.8021e-08
        0.598  -2.79761e-08
        0.599  -2.79316e-08
          0.6   -2.7887e-08
        0.601  -2.78433e-08
        0.602  -2.77983e-08
        0.603  -2.77551e-08
        0.604  -2.77105e-08
        0.605  -2.76674e-08
        0.606  -2.76234e-08
        0.607  -2.75796e-08
        0.608  -2.75368e-08
        0.609  -2.74931e-08
         0.61  -2.74505e-08
        0.611  -2.74075e-08
        0.612  -2.73643e-08
        0.613  -2.73218e-08
        0.614  -2.72815e-08
        0.615  -2.72387e-08
        0.616  -2.71956e-08
        0.617  -2.71538e-08
        0.618   -2.7112e-08
        0.619  -2.70696e-08
         0.62  -2.70279e-08
        0.621  -2.69859e-08
        0.622  -2.69447e-08
        0.623  -2.69037e-08
        0.624  -2.68618e-08
        0.625  -2.68208e-08
        0.626  -2.67793e-08
        0.627  -2.67393e-08
        0.628  -2.66984e-08
        0.629  -2.66569e-08
         0.63  -2.66166e-08
        0.631  -2.65767e-08
        0.632  -2.65359e-08
        0.633  -2.64956e-08
        0.634  -2.64558e-08
        0.635  -2.64158e-08
        0.636  -2.63757e-08
        0.637  -2.63361e-08
        0.638  -2.62959e-08
        0.639  -2.62571e-08
         0.64  -2.62173e-08
        0.641  -2.61778e-08
        0.642   -2.6139e-08
        0.643  -2.60995e-08
        0.644  -2.60607e-08
        0.645  -2.60221e-08
        0.646  -2.59826e-08
        0.647  -2.59433e-08
        0.648  -2.59051e-08
        0.649  -2.58663e-08
         0.65  -2.58284e-08
        0.651  -2.57901e-08
        0.652  -2.57524e-08
        0.653  -2.57138e-08
        0.654  -2.56764e-08
        0.655  -2.56388e-08
        0.656  -2.56005e-08
        0.657  -2.55632e-08
        0.658  -2.55263e-08
        0.659  -2.54881e-08
         0.66  -2.54515e-08
        0.661   -2.5414e-08
        0.662  -2.53772e-08
        0.663    -2.534e-08
        0.664  -2.53035e-08
        0.665  -2.52665e-08
        0.666  -2.52302e-08
        0.667  -2.51929e-08
        0.668  -2.51631e-08
        0.669  -2.51232e-08
         0.67   -2.5087e-08
        0.671  -2.50506e-08
        0.672  -2.50147e-08
        0.673  -2.49783e-08
        0.674  -2.49429e-08
        0.675  -2.49068e-08
        0.676  -2.48709e-08
        0.677  -2.48357e-08
        0.678  -2.47992e-08
        0.679  -2.47646e-08
         0.68  -2.47286e-08
        0.681  -2.46938e-08
        0.682   -2.4658e-08
        0.683  -2.46231e-08
        0.684  -2.45877e-08
        0.685  -2.45525e-08
        0.686  -2.45171e-08
        0.687  -2.44825e-08
        0.688  -2.44467e-08
        0.689  -2.44099e-08
         0.69   -2.4377e-08
        0.691  -2.43453e-08
        0.692  -2.43152e-08
        0.693  -2.42809e-08
        0.694  -2.42464e-08
        0.695  -2.42131e-08
        0.696  -2.41771e-08
        0.697   -2.4143e-08
        0.698  -2.41097e-08
        0.699  -2.40763e-08
          0.7  -2.40423e-08
        0.701  -2.40091e-08
        0.702  -2.39758e-08
        0.703  -2.39423e-08
        0.704  -2.39094e-08
        0.705  -2.38758e-08
        0.706   -2.3843e-08
        0.707  -2.38099e-08
        0.708  -2.37775e-08
        0.709  -2.37446e-08
         0.71  -2.37133e-08
        0.711  -2.36793e-08
        0.712  -2.36457e-08
        0.713  -2.36132e-08
        0.714  -2.35809e-08
        0.715  -2.35488e-08
        0.716  -2.35168e-08
        0.717  -2.34849e-08
        0.718  -2.34527e-08
        0.719  -2.34205e-08
         0.72  -2.33888e-08
        0.721   -2.3357e-08
        0.722  -2.33257e-08
        0.723  -2.32933e-08
        0.724  -2.32622e-08
        0.725  -2.32304e-08
        0.726   -2.3199e-08
        0.727  -2.31679e-08
        0.728  -2.31369e-08
        0.729  -2.31052e-08
         0.73  -2.30741e-08
        0.731  -2.30434e-08
        0.732  -2.30126e-08
        0.733  -2.29813e-08
        0.734  -2.29505e-08
        0.735  -2.29202e-08
        0.736  -2.28892e-08
        0.737  -2.28583e-08
        0.738  -2.28285e-08
        0.739  -2.27979e-08
         0.74  -2.27677e-08
        0.741  -2.27371e-08
        0.742  -2.27117e-08
        0.743  -2.26795e-08
        0.744  -3.33791e-08
        0.745  -3.20952e-08
        0.746  -3.22759e-08
        0.747  -3.22607e-08
        0.748  -3.22598e-08
        0.749  -3.22445e-08
         0.75   -3.2226e-08
        0.751  -3.22027e-08
        0.752  -3.21793e-08
        0.753  -3.21448e-08
        0.754  -3.21108e-08
        0.755  -3.20751e-08
        0.756  -3.20369e-08
        0.757   -3.1998e-08
        0.758  -3.19573e-08
        0.759  -3.19166e-08
         0.76  -3.18751e-08
        0.761  -3.18322e-08
        0.762  -3.17905e-08
        0.763  -3.17471e-08
        0.764  -3.17041e-08
        0.765  -3.16613e-08
        0.766  -3.16226e-08
        0.767  -3.15765e-08
        0.768  -3.15341e-08
        0.769  -3.14925e-08
         0.77  -3.14479e-08
        0.771  -3.14045e-08
        0.772  -3.13607e-08
        0.773  -3.13172e-08
        0.774  -3.12739e-08
        0.775  -3.12297e-08
        0.776  -3.11863e-08
        0.777  -3.11421e-08
        0.778  -3.10989e-08
        0.779  -3.10556e-08
         0.78  -3.10113e-08
        0.781  -3.09685e-08
        0.782  -3.09253e-08
        0.783  -3.08822e-08
        0.784  -3.08391e-08
        0.785  -3.07963e-08
        0.786  -3.07532e-08
        0.787  -3.07141e-08
        0.788  -3.06692e-08
        0.789  -3.06274e-08
         0.79  -3.05845e-08
        0.791  -3.05436e-08
        0.792  -3.04988e-08
        0.793   -3.0457e-08
        0.794  -3.04147e-08
        0.795  -3.03731e-08
        0.796  -3.03308e-08
        0.797  -3.02884e-08
        0.798  -3.02474e-08
        0.799  -3.02053e-08
          0.8  -3.01639e-08
        0.801  -3.01222e-08
        0.802   -3.0081e-08
        0.803  -3.00391e-08
        0.804  -2.99979e-08
        0.805  -2.99567e-08
        0.806  -2.99157e-08
        0.807  -2.98746e-08
        0.808   -2.9834e-08
        0.809  -2.97921e-08
         0.81  -2.97517e-08
        0.811  -2.97103e-08
        0.812  -2.96709e-08
        0.813  -2.96293e-08
        0.814   -2.9589e-08
        0.815  -2.95537e-08
        0.816  -2.95092e-08
        0.817  -2.94691e-08
        0.818  -2.94284e-08
        0.819  -2.93878e-08
         0.82  -2.93479e-08
        0.821  -2.93072e-08
        0.822  -2.92674e-08
        0.823  -2.92281e-08
        0.824  -2.91885e-08
        0.825  -2.91493e-08
        0.826  -2.91101e-08
        0.827  -2.90708e-08
        0.828  -2.90315e-08
        0.829  -2.89961e-08
         0.83  -2.89537e-08
        0.831  -2.89206e-08
        0.832  -2.88766e-08
        0.833  -2.88378e-08
        0.834  -2.87979e-08
        0.835  -2.87592e-08
        0.836  -2.87199e-08
        0.837  -2.86815e-08
        0.838  -2.86426e-08
        0.839   -2.8607e-08
         0.84  -2.85678e-08
        0.841    -2.853e-08
        0.842  -2.84899e-08
        0.843  -2.84531e-08
        0.844  -2.84152e-08
        0.845  -2.83774e-08
        0.846  -2.83402e-08
        0.847  -2.83021e-08
        0.848  -2.82686e-08
        0.849  -2.82285e-08
         0.85  -2.81909e-08
        0.851  -2.81536e-08
        0.852  -2.81165e-08
        0.853  -2.80793e-08
        0.854  -2.80412e-08
        0.855  -2.80048e-08
        0.856  -2.79677e-08
        0.857  -2.79348e-08
        0.858  -2.78942e-08
        0.859   -2.7858e-08
         0.86  -2.78208e-08
        0.861  -2.77843e-08
        0.862  -2.77471e-08
        0.863  -2.77139e-08
        0.864  -2.76757e-08
        0.865  -2.76376e-08
        0.866  -2.76046e-08
        0.867  -2.75686e-08
        0.868  -2.75321e-08
        0.869  -2.74964e-08
         0.87  -2.74597e-08
        0.871  -2.74243e-08
        0.872  -2.73887e-08
        0.873  -2.73519e-08
        0.874  -2.73163e-08
        0.875  -2.72811e-08
        0.876  -2.72451e-08
        0.877  -2.72098e-08
        0.878  -2.71748e-08
        0.879  -2.71426e-08
         0.88  -2.71059e-08
        0.881  -2.70712e-08
        0.882  -2.70342e-08
        0.883   -2.7001e-08
        0.884  -2.69662e-08
        0.885   -2.6931e-08
        0.886  -2.68968e-08
        0.887  -2.68628e-08
        0.888  -2.68308e-08
        0.889  -2.67946e-08
         0.89  -2.67602e-08
        0.891  -2.67268e-08
        0.892  -2.66915e-08
        0.893  -2.66579e-08
        0.894  -2.66236e-08
        0.895  -2.65897e-08
        0.896  -2.65563e-08
        0.897  -2.65205e-08
        0.898   -2.6488e-08
        0.899  -2.64585e-08
          0.9  -2.64215e-08
        0.901  -2.63877e-08
        0.902  -2.63546e-08
        0.903  -2.63214e-08
        0.904  -2.62879e-08
        0.905  -2.62548e-08
        0.906  -2.62221e-08
        0.907  -2.61884e-08
        0.908  -2.61567e-08
        0.909  -2.61227e-08
         0.91  -2.60878e-08
        0.911   -2.6052e-08
        0.912  -2.60203e-08
        0.913  -2.59903e-08
        0.914  -2.59569e-08
        0.915  -2.59203e-08
        0.916   -2.5892e-08
        0.917  -2.58588e-08
        0.918  -2.58265e-08
        0.919  -2.57933e-08
         0.92  -2.57594e-08
        0.921  -2.57286e-08
        0.922  -2.56972e-08
        0.923  -2.56665e-08
        0.924  -2.56345e-08
        0.925  -2.56028e-08
        0.926  -2.55704e-08
        0.927  -2.55392e-08
        0.928  -2.55072e-08
        0.929  -2.54753e-08
         0.93  -2.54444e-08
        0.931   -2.5412e-08
        0.932  -2.53806e-08
        0.933  -2.53484e-08
        0.934  -2.53175e-08
        0.935  -2.52857e-08
        0.936  -2.52549e-08
        0.937  -2.52217e-08
        0.938  -2.51917e-08
        0.939  -2.51596e-08
         0.94  -2.51284e-08
        0.941  -2.50959e-08
        0.942  -2.50664e-08
        0.943  -2.50339e-08
        0.944  -2.50064e-08
        0.945  -2.49741e-08
        0.946   -2.4944e-08
        0.947  -2.49145e-08
        0.948  -2.48838e-08
        0.949  -2.48534e-08
         0.95  -2.48223e-08
        0.951  -2.47923e-08
        0.952  -2.47622e-08
        0.953  -2.47316e-08
        0.954  -2.47021e-08
        0.955  -2.46709e-08
        0.956  -2.46406e-08
        0.957  -2.46108e-08
        0.958  -2.45804e-08
        0.959  -2.45501e-08
         0.96  -2.45193e-08
        0.961  -2.44893e-08
        0.962  -2.44606e-08
        0.963  -2.44297e-08
        0.964  -2.44004e-08
        0.965  -2.43711e-08
        0.966  -2.43433e-08
        0.967   -2.4313e-08
        0.968   -2.4284e-08
        0.969  -2.42541e-08
         0.97  -2.42253e-08
        0.971  -2.41955e-08
        0.972  -2.41645e-08
        0.973  -2.41373e-08
        0.974  -2.41076e-08
        0.975  -2.40786e-08
        0.976    -2.405e-08
        0.977  -2.40205e-08
        0.978  -2.39917e-08
        0.979  -2.39633e-08
         0.98  -2.39344e-08
        0.981  -2.39059e-08
        0.982  -2.38765e-08
        0.983  -2.38486e-08
        0.984  -2.38232e-08
        0.985  -2.37916e-08
        0.986  -2.37635e-08
        0.987   -2.3736e-08
        0.988  -2.37067e-08
        0.989  -2.36795e-08
         0.99  -2.36506e-08
        0.991  -2.36216e-08
        0.992  -2.35947e-08
        0.993  -2.35654e-08
        0.994  -2.35387e-08
        0.995  -2.35096e-08
        0.996  -2.34823e-08
        0.997  -2.34542e-08
        0.998  -2.34264e-08
        0.999  -2.33981e-08
            1  -2.33705e-08
        1.001  -2.33428e-08
        1.002  -2.33143e-08
        1.003  -2.32876e-08
        1.004    -2.326e-08
        1.005  -2.32315e-08
        1.006  -2.32088e-08
        1.007  -2.31782e-08
        1.008  -2.31511e-08
        1.009  -2.31241e-08
         1.01  -2.30965e-08
        1.011  -2.30685e-08
        1.012  -2.30419e-08
        1.013   -2.3015e-08
        1.014  -2.29887e-08
        1.015  -2.29608e-08
        1.016  -2.29336e-08
        1.017  -2.29075e-08
        1.018  -2.28794e-08
        1.019  -2.28535e-08
         1.02  -2.28261e-08
        1.021  -2.27997e-08
        1.022  -2.27729e-08
        1.023  -2.27466e-08
        1.024  -2.27194e-08
        1.025  -2.26936e-08
        1.026   -2.2666e-08
        1.027  -2.26404e-08
        1.028  -2.26137e-08
        1.029  -2.25872e-08
         1.03  -2.25607e-08
        1.031   -2.2535e-08
        1.032  -2.25084e-08
        1.033  -2.24822e-08
        1.034  -2.24561e-08
        1.035  -2.24296e-08
        1.036  -2.24043e-08
        1.037  -2.23773e-08
        1.038  -2.23515e-08
        1.039  -2.23259e-08
         1.04  -2.23001e-08
        1.041  -2.22737e-08
        1.042  -2.22476e-08
        1.043  -2.22229e-08
        1.044  -2.21964e-08
        1.045   -2.2171e-08
        1.046  -2.21448e-08
        1.047  -2.21191e-08
        1.048  -2.20932e-08
        1.049  -2.20681e-08
         1.05  -2.20427e-08
        1.051  -2.20175e-08
        1.052  -2.19953e-08
        1.053  -2.19653e-08
        1.054  -2.19436e-08
        1.055  -2.19147e-08
        1.056  -2.18923e-08
        1.057  -2.18681e-08
        1.058  -2.18436e-08
        1.059  -2.18143e-08
         1.06  -2.17912e-08
        1.061  -2.17657e-08
        1.062    -2.174e-08
        1.063  -2.17164e-08
        1.064   -2.1691e-08
        1.065   -2.1668e-08
        1.066  -2.16402e-08
        1.067  -2.16184e-08
        1.068  -2.15921e-08
        1.069  -2.15689e-08