# Probe 0 (3.5 0.5 0.05)
#       Probe             0
#        Time
        0.001             (1.00286 -5.31882e-16 0)
        0.002             (1.00544 -1.31485e-12 0)
        0.003             (1.00778 1.47385e-13 0)
        0.004             (1.00991 2.4514e-12 0)
        0.005             (1.01187 4.44059e-12 0)
        0.006             (1.01368 6.11171e-12 0)
        0.007             (1.01535 7.51806e-12 0)
        0.008             (1.01692 8.70723e-12 0)
        0.009             (1.01838 9.71847e-12 0)
         0.01             (1.01977 1.05823e-11 0)
        0.011             (1.02107 1.13232e-11 0)
        0.012             (1.02231 1.19617e-11 0)
        0.013             (1.0235 1.25139e-11 0)
        0.014             (1.02463 1.29919e-11 0)
        0.015             (1.02572 1.34057e-11 0)
        0.016             (1.02676 1.37664e-11 0)
        0.017             (1.02777 1.4082e-11 0)
        0.018             (1.02874 1.43578e-11 0)
        0.019             (1.02968 1.4599e-11 0)
         0.02             (1.0306 1.48105e-11 0)
        0.021             (1.03149 1.49958e-11 0)
        0.022             (1.03235 1.5158e-11 0)
        0.023             (1.0332 1.52999e-11 0)
        0.024             (1.03402 1.54239e-11 0)
        0.025             (1.03483 1.55323e-11 0)
        0.026             (1.03562 1.56266e-11 0)
        0.027             (1.03639 1.57081e-11 0)
        0.028             (1.03715 1.57787e-11 0)
        0.029             (1.03789 1.58392e-11 0)
         0.03             (1.03862 1.58907e-11 0)
        0.031             (1.03934 1.59339e-11 0)
        0.032             (1.04004 1.59697e-11 0)
        0.033             (1.04073 1.59986e-11 0)
        0.034             (1.04142 1.60218e-11 0)
        0.035             (1.04209 1.60393e-11 0)
        0.036             (1.04275 1.60521e-11 0)
        0.037             (1.04341 1.60598e-11 0)
        0.038             (1.04405 1.60633e-11 0)
        0.039             (1.04469 1.77556e-11 0)
         0.04             (1.04532 1.94182e-11 0)
        0.041             (1.04594 2.10434e-11 0)
        0.042             (1.04655 2.26313e-11 0)
        0.043             (1.04715 2.41795e-11 0)
        0.044             (1.04775 2.56909e-11 0)
        0.045             (1.04834 2.71643e-11 0)
        0.046             (1.04893 2.85997e-11 0)
        0.047             (1.04951 2.99979e-11 0)
        0.048             (1.05008 3.1359e-11 0)
        0.049             (1.05065 3.26852e-11 0)
         0.05             (1.05121 3.39764e-11 0)
        0.051             (1.05177 3.5232e-11 0)
        0.052             (1.05232 3.6454e-11 0)
        0.053             (1.05287 3.76432e-11 0)
        0.054             (1.05341 3.87977e-11 0)
        0.055             (1.05394 3.99228e-11 0)
        0.056             (1.05447 4.10172e-11 0)
        0.057             (1.055 4.20813e-11 0)
        0.058             (1.05552 4.31168e-11 0)
        0.059             (1.05604 4.41242e-11 0)
         0.06             (1.05656 4.51035e-11 0)
        0.061             (1.05707 4.60578e-11 0)
        0.062             (1.05757 4.69857e-11 0)
        0.063             (1.05807 4.78882e-11 0)
        0.064             (1.05857 4.87658e-11 0)
        0.065             (1.05907 4.96202e-11 0)
        0.066             (1.05956 5.04496e-11 0)
        0.067             (1.06005 5.12564e-11 0)
        0.068             (1.06053 5.2043e-11 0)
        0.069             (1.06101 5.28059e-11 0)
         0.07             (1.06149 5.35479e-11 0)
        0.071             (1.06196 5.42695e-11 0)
        0.072             (1.06244 5.49712e-11 0)
        0.073             (1.0629 5.56534e-11 0)
        0.074             (1.06337 5.63169e-11 0)
        0.075             (1.06383 5.69628e-11 0)
        0.076             (1.06429 5.75896e-11 0)
        0.077             (1.06475 5.8199e-11 0)
        0.078             (1.0652 5.87914e-11 0)
        0.079             (1.06565 5.93673e-11 0)
         0.08             (1.0661 5.99268e-11 0)
        0.081             (1.06655 6.04707e-11 0)
        0.082             (1.06699 6.09978e-11 0)
        0.083             (1.06743 6.15103e-11 0)
        0.084             (1.06787 6.20097e-11 0)
        0.085             (1.06831 6.24935e-11 0)
        0.086             (1.06874 6.29633e-11 0)
        0.087             (1.06917 6.34195e-11 0)
        0.088             (1.0696 6.38626e-11 0)
        0.089             (1.07003 6.42926e-11 0)
         0.09             (1.07046 6.47092e-11 0)
        0.091             (1.07088 6.51159e-11 0)
        0.092             (1.0713 6.55099e-11 0)
        0.093             (1.07172 6.58903e-11 0)
        0.094             (1.07213 6.62599e-11 0)
        0.095             (1.07255 6.66177e-11 0)
        0.096             (1.07296 6.69644e-11 0)
        0.097             (1.07337 6.73004e-11 0)
        0.098             (1.07378 6.76257e-11 0)
        0.099             (1.07419 6.79407e-11 0)
          0.1             (1.07459 6.82457e-11 0)
        0.101             (1.07499 6.85408e-11 0)
        0.102             (1.0754 6.88262e-11 0)
        0.103             (1.07579 6.91022e-11 0)
        0.104             (1.07619 6.93694e-11 0)
        0.105             (1.07659 6.96272e-11 0)
        0.106             (1.07698 6.98752e-11 0)
        0.107             (1.07737 7.0114e-11 0)
        0.108             (1.07777 7.03458e-11 0)
        0.109             (1.07816 7.05693e-11 0)
         0.11             (1.07854 7.07848e-11 0)
        0.111             (1.07893 7.09922e-11 0)
        0.112             (1.07931 7.1193e-11 0)
        0.113             (1.0797 7.13847e-11 0)
        0.114             (1.08008 7.15688e-11 0)
        0.115             (1.08046 7.1746e-11 0)
        0.116             (1.08084 7.19185e-11 0)
        0.117             (1.08121 7.20807e-11 0)
        0.118             (1.08159 7.22354e-11 0)
        0.119             (1.08196 7.23844e-11 0)
         0.12             (1.08234 7.25271e-11 0)
        0.121             (1.08271 7.26634e-11 0)
        0.122             (1.08308 7.27935e-11 0)
        0.123             (1.08345 7.29173e-11 0)
        0.124             (1.08381 7.30351e-11 0)
        0.125             (1.08418 7.3147e-11 0)
        0.126             (1.08454 7.3253e-11 0)
        0.127             (1.08491 7.33527e-11 0)
        0.128             (1.08527 7.34479e-11 0)
        0.129             (1.08563 7.35371e-11 0)
         0.13             (1.08599 7.36217e-11 0)
        0.131             (1.08635 7.37009e-11 0)
        0.132             (1.08671 7.37748e-11 0)
        0.133             (1.08706 7.38427e-11 0)
        0.134             (1.08742 7.39058e-11 0)
        0.135             (1.08777 7.39642e-11 0)
        0.136             (1.08812 7.40176e-11 0)
        0.137             (1.08848 7.40661e-11 0)
        0.138             (1.08883 7.41107e-11 0)
        0.139             (1.08917 7.41488e-11 0)
         0.14             (1.08952 7.41845e-11 0)
        0.141             (1.08987 7.4216e-11 0)
        0.142             (1.09022 7.42432e-11 0)
        0.143             (1.09056 7.42662e-11 0)
        0.144             (1.0909 7.4285e-11 0)
        0.145             (1.09125 7.42996e-11 0)
        0.146             (1.09159 7.43101e-11 0)
        0.147             (1.09193 7.43169e-11 0)
        0.148             (1.09227 7.43195e-11 0)
        0.149             (1.09261 7.43184e-11 0)
         0.15             (1.09295 7.43152e-11 0)
        0.151             (1.09328 7.43072e-11 0)
        0.152             (1.09362 7.42956e-11 0)
        0.153             (1.09395 7.42807e-11 0)
        0.154             (1.09429 7.42624e-11 0)
        0.155             (1.09462 7.42404e-11 0)
        0.156             (1.09495 7.42154e-11 0)
        0.157             (1.09528 7.41873e-11 0)
        0.158             (1.09561 7.41556e-11 0)
        0.159             (1.09594 7.41212e-11 0)
         0.16             (1.09627 7.40849e-11 0)
        0.161             (1.0966 7.40442e-11 0)
        0.162             (1.09692 7.40008e-11 0)
        0.163             (1.09725 7.39546e-11 0)
        0.164             (1.09758 7.3906e-11 0)
        0.165             (1.0979 7.38541e-11 0)
        0.166             (1.09822 7.37997e-11 0)
        0.167             (1.09854 7.3742e-11 0)
        0.168             (1.09887 7.36817e-11 0)
        0.169             (1.09919 7.36189e-11 0)
         0.17             (1.09951 7.3554e-11 0)
        0.171             (1.09983 7.34889e-11 0)
        0.172             (1.10014 7.3419e-11 0)
        0.173             (1.10046 7.33464e-11 0)
        0.174             (1.10078 7.32709e-11 0)
        0.175             (1.10109 7.31947e-11 0)
        0.176             (1.10141 7.31159e-11 0)
        0.177             (1.10172 7.30346e-11 0)
        0.178             (1.10204 7.2951e-11 0)
        0.179             (1.10235 7.28648e-11 0)
         0.18             (1.10266 7.27773e-11 0)
        0.181             (1.10297 7.26851e-11 0)
        0.182             (1.10328 7.25934e-11 0)
        0.183             (1.10359 7.24996e-11 0)
        0.184             (1.1039 7.24039e-11 0)
        0.185             (1.10421 7.23062e-11 0)
        0.186             (1.10452 7.22066e-11 0)
        0.187             (1.10483 7.21051e-11 0)
        0.188             (1.10513 7.20017e-11 0)
        0.189             (1.10544 7.18967e-11 0)
         0.19             (1.10574 7.17898e-11 0)
        0.191             (1.10605 7.16812e-11 0)
        0.192             (1.10635 7.15709e-11 0)
        0.193             (1.10665 7.14589e-11 0)
        0.194             (1.10696 7.13454e-11 0)
        0.195             (1.10726 7.12301e-11 0)
        0.196             (1.10756 7.11134e-11 0)
        0.197             (1.10786 7.09954e-11 0)
        0.198             (1.10816 7.08755e-11 0)
        0.199             (1.10846 7.07542e-11 0)
          0.2             (1.10876 7.06316e-11 0)
        0.201             (1.10905 7.05073e-11 0)
        0.202             (1.10935 7.03815e-11 0)
        0.203             (1.10965 7.02544e-11 0)
        0.204             (1.10994 7.01259e-11 0)
        0.205             (1.11024 6.99963e-11 0)
        0.206             (1.11053 6.98652e-11 0)
        0.207             (1.11083 6.97328e-11 0)
        0.208             (1.11112 6.95991e-11 0)
        0.209             (1.11141 6.94642e-11 0)
         0.21             (1.11171 6.93284e-11 0)
        0.211             (1.112 6.91909e-11 0)
        0.212             (1.11229 6.90528e-11 0)
        0.213             (1.11258 6.89134e-11 0)
        0.214             (1.11287 6.8773e-11 0)
        0.215             (1.11316 6.86313e-11 0)
        0.216             (1.11345 6.84886e-11 0)
        0.217             (1.11374 6.83449e-11 0)
        0.218             (1.11402 6.82001e-11 0)
        0.219             (1.11431 6.80541e-11 0)
         0.22             (1.1146 6.79073e-11 0)
        0.221             (1.11488 6.77596e-11 0)
        0.222             (1.11517 6.76108e-11 0)
        0.223             (1.11545 6.7461e-11 0)
        0.224             (1.11574 6.73103e-11 0)
        0.225             (1.11602 6.71589e-11 0)
        0.226             (1.11631 6.70065e-11 0)
        0.227             (1.11659 6.68532e-11 0)
        0.228             (1.11687 6.6699e-11 0)
        0.229             (1.11715 6.65441e-11 0)
         0.23             (1.11743 6.63879e-11 0)
        0.231             (1.11771 6.62312e-11 0)
        0.232             (1.11799 6.60737e-11 0)
        0.233             (1.11827 6.59156e-11 0)
        0.234             (1.11855 6.57566e-11 0)
        0.235             (1.11883 6.55969e-11 0)
        0.236             (1.11911 6.54365e-11 0)
        0.237             (1.11939 6.52755e-11 0)
        0.238             (1.11967 6.51136e-11 0)
        0.239             (1.11994 6.4951e-11 0)
         0.24             (1.12022 6.47878e-11 0)
        0.241             (1.1205 6.46239e-11 0)
        0.242             (1.12077 6.44594e-11 0)
        0.243             (1.12105 6.42945e-11 0)
        0.244             (1.12132 6.41287e-11 0)
        0.245             (1.12159 6.39621e-11 0)
        0.246             (1.12187 6.37953e-11 0)
        0.247             (1.12214 6.36279e-11 0)
        0.248             (1.12241 6.346e-11 0)
        0.249             (1.12269 6.32915e-11 0)
         0.25             (1.12296 6.31224e-11 0)
        0.251             (1.12323 6.29528e-11 0)
        0.252             (1.1235 6.27828e-11 0)
        0.253             (1.12377 6.26124e-11 0)
        0.254             (1.12404 6.24413e-11 0)
        0.255             (1.12431 6.22699e-11 0)
        0.256             (1.12458 6.20978e-11 0)
        0.257             (1.12485 6.19254e-11 0)
        0.258             (1.12512 6.17528e-11 0)
        0.259             (1.12538 6.15794e-11 0)
         0.26             (1.12565 6.14058e-11 0)
        0.261             (1.12592 6.12318e-11 0)
        0.262             (1.12619 6.10574e-11 0)
        0.263             (1.12645 6.08828e-11 0)
        0.264             (1.12672 6.07077e-11 0)
        0.265             (1.12698 6.05322e-11 0)
        0.266             (1.12725 6.03564e-11 0)
        0.267             (1.12751 6.01803e-11 0)
        0.268             (1.12778 6.00038e-11 0)
        0.269             (1.12804 5.9827e-11 0)
         0.27             (1.1283 5.96499e-11 0)
        0.271             (1.12857 5.94723e-11 0)
        0.272             (1.12883 5.92946e-11 0)
        0.273             (1.12909 5.91165e-11 0)
        0.274             (1.12935 5.89382e-11 0)
        0.275             (1.12961 5.87597e-11 0)
        0.276             (1.12988 5.85808e-11 0)
        0.277             (1.13014 5.84018e-11 0)
        0.278             (1.1304 5.82225e-11 0)
        0.279             (1.13066 5.80428e-11 0)
         0.28             (1.13092 5.78631e-11 0)
        0.281             (1.13118 5.76832e-11 0)
        0.282             (1.13143 5.75032e-11 0)
        0.283             (1.13169 5.73228e-11 0)
        0.284             (1.13195 5.71423e-11 0)
        0.285             (1.13221 5.69614e-11 0)
        0.286             (1.13247 5.67806e-11 0)
        0.287             (1.13272 5.65996e-11 0)
        0.288             (1.13298 5.64184e-11 0)
        0.289             (1.13323 5.62371e-11 0)
         0.29             (1.13349 5.60555e-11 0)
        0.291             (1.13375 5.58739e-11 0)
        0.292             (1.134 5.56923e-11 0)
        0.293             (1.13426 5.55104e-11 0)
        0.294             (1.13451 5.53286e-11 0)
        0.295             (1.13476 5.51466e-11 0)
        0.296             (1.13502 5.49646e-11 0)
        0.297             (1.13527 5.47824e-11 0)
        0.298             (1.13552 5.46001e-11 0)
        0.299             (1.13578 5.44178e-11 0)
          0.3             (1.13603 5.42354e-11 0)
        0.301             (1.13628 5.4053e-11 0)
        0.302             (1.13653 5.38704e-11 0)
        0.303             (1.13678 5.36877e-11 0)
        0.304             (1.13704 5.35051e-11 0)
        0.305             (1.13729 5.33223e-11 0)
        0.306             (1.13754 5.31395e-11 0)
        0.307             (1.13779 5.29567e-11 0)
        0.308             (1.13804 5.27741e-11 0)
        0.309             (1.13829 5.25912e-11 0)
         0.31             (1.13853 5.24082e-11 0)
        0.311             (1.13878 5.22254e-11 0)
        0.312             (1.13903 5.20427e-11 0)
        0.313             (1.13928 5.18598e-11 0)
        0.314             (1.13953 5.16772e-11 0)
        0.315             (1.13978 5.14944e-11 0)
        0.316             (1.14002 5.13117e-11 0)
        0.317             (1.14027 5.1129e-11 0)
        0.318             (1.14052 5.09464e-11 0)
        0.319             (1.14076 5.07636e-11 0)
         0.32             (1.14101 5.05811e-11 0)
        0.321             (1.14125 5.03987e-11 0)
        0.322             (1.1415 5.02161e-11 0)
        0.323             (1.14174 5.00339e-11 0)
        0.324             (1.14199 4.98516e-11 0)
        0.325             (1.14223 4.96692e-11 0)
        0.326             (1.14248 4.9487e-11 0)
        0.327             (1.14272 4.93048e-11 0)
        0.328             (1.14296 4.91227e-11 0)
        0.329             (1.14321 4.89409e-11 0)
         0.33             (1.14345 4.8759e-11 0)
        0.331             (1.14369 4.85773e-11 0)
        0.332             (1.14394 4.83958e-11 0)
        0.333             (1.14418 4.82143e-11 0)
        0.334             (1.14442 4.8033e-11 0)
        0.335             (1.14466 4.78516e-11 0)
        0.336             (1.1449 4.76705e-11 0)
        0.337             (1.14514 4.74894e-11 0)
        0.338             (1.14538 4.73085e-11 0)
        0.339             (1.14562 4.71276e-11 0)
         0.34             (1.14586 4.69469e-11 0)
        0.341             (1.1461 4.67664e-11 0)
        0.342             (1.14634 4.6586e-11 0)
        0.343             (1.14658 4.64058e-11 0)
        0.344             (1.14682 4.62257e-11 0)
        0.345             (1.14706 4.60457e-11 0)
        0.346             (1.1473 4.58659e-11 0)
        0.347             (1.14754 4.56864e-11 0)
        0.348             (1.14778 4.55068e-11 0)
        0.349             (1.14801 4.53273e-11 0)
         0.35             (1.14825 4.51482e-11 0)
        0.351             (1.14849 4.49692e-11 0)
        0.352             (1.14872 4.47904e-11 0)
        0.353             (1.14896 4.46118e-11 0)
        0.354             (1.1492 4.44333e-11 0)
        0.355             (1.14943 4.42552e-11 0)
        0.356             (1.14967 4.40772e-11 0)
        0.357             (1.1499 4.38994e-11 0)
        0.358             (1.15014 4.37218e-11 0)
        0.359             (1.15037 4.35444e-11 0)
         0.36             (1.15061 4.33673e-11 0)
        0.361             (1.15084 4.31903e-11 0)
        0.362             (1.15108 4.30135e-11 0)
        0.363             (1.15131 4.28371e-11 0)
        0.364             (1.15155 4.26607e-11 0)
        0.365             (1.15178 4.24846e-11 0)
        0.366             (1.15201 4.23087e-11 0)
        0.367             (1.15225 4.2133e-11 0)
        0.368             (1.15248 4.19575e-11 0)
        0.369             (1.15271 4.17824e-11 0)
         0.37             (1.15294 4.16073e-11 0)
        0.371             (1.15318 4.14326e-11 0)
        0.372             (1.15341 4.12581e-11 0)
        0.373             (1.15364 4.10838e-11 0)
        0.374             (1.15387 4.09098e-11 0)
        0.375             (1.1541 4.07361e-11 0)
        0.376             (1.15433 4.05627e-11 0)
        0.377             (1.15456 4.03896e-11 0)
        0.378             (1.15479 4.02166e-11 0)
        0.379             (1.15502 4.00439e-11 0)
         0.38             (1.15525 3.98714e-11 0)
        0.381             (1.15548 3.96993e-11 0)
        0.382             (1.15571 3.95273e-11 0)
        0.383             (1.15594 3.93554e-11 0)
        0.384             (1.15617 3.91838e-11 0)
        0.385             (1.1564 3.90128e-11 0)
        0.386             (1.15663 3.88419e-11 0)
        0.387             (1.15686 3.86711e-11 0)
        0.388             (1.15708 3.85009e-11 0)
        0.389             (1.15731 3.83309e-11 0)
         0.39             (1.15754 3.8161e-11 0)
        0.391             (1.15777 3.79917e-11 0)
        0.392             (1.15799 3.78225e-11 0)
        0.393             (1.15822 3.76537e-11 0)
        0.394             (1.15845 3.74851e-11 0)
        0.395             (1.15867 3.73168e-11 0)
        0.396             (1.1589 3.71488e-11 0)
        0.397             (1.15913 3.69812e-11 0)
        0.398             (1.15935 3.68138e-11 0)
        0.399             (1.15958 3.66468e-11 0)
          0.4             (1.1598 3.64801e-11 0)
        0.401             (1.16003 3.63136e-11 0)
        0.402             (1.16025 3.61474e-11 0)
        0.403             (1.16048 3.59816e-11 0)
        0.404             (1.1607 3.5816e-11 0)
        0.405             (1.16093 3.56507e-11 0)
        0.406             (1.16115 3.54858e-11 0)
        0.407             (1.16137 3.53211e-11 0)
        0.408             (1.1616 3.51569e-11 0)
        0.409             (1.16182 3.4993e-11 0)
         0.41             (1.16204 3.48293e-11 0)
        0.411             (1.16227 3.46659e-11 0)
        0.412             (1.16249 3.4503e-11 0)
        0.413             (1.16271 3.43403e-11 0)
        0.414             (1.16294 3.41716e-11 0)
        0.415             (1.16316 3.40043e-11 0)
        0.416             (1.16338 3.38378e-11 0)
        0.417             (1.1636 3.36719e-11 0)
        0.418             (1.16382 3.35068e-11 0)
        0.419             (1.16404 3.33424e-11 0)
         0.42             (1.16427 3.31786e-11 0)
        0.421             (1.16449 3.30153e-11 0)
        0.422             (1.16471 3.28526e-11 0)
        0.423             (1.16493 3.26903e-11 0)
        0.424             (1.16515 3.25286e-11 0)
        0.425             (1.16537 3.23674e-11 0)
        0.426             (1.16559 3.22066e-11 0)
        0.427             (1.16581 3.20464e-11 0)
        0.428             (1.16603 3.18867e-11 0)
        0.429             (1.16625 3.17273e-11 0)
         0.43             (1.16647 3.15683e-11 0)
        0.431             (1.16669 3.14098e-11 0)
        0.432             (1.16691 3.12517e-11 0)
        0.433             (1.16712 3.1094e-11 0)
        0.434             (1.16734 3.09367e-11 0)
        0.435             (1.16756 3.07797e-11 0)
        0.436             (1.16778 3.06232e-11 0)
        0.437             (1.168 3.04672e-11 0)
        0.438             (1.16821 3.03115e-11 0)
        0.439             (1.16843 3.01561e-11 0)
         0.44             (1.16865 3.00012e-11 0)
        0.441             (1.16887 2.98467e-11 0)
        0.442             (1.16908 2.96925e-11 0)
        0.443             (1.1693 2.95388e-11 0)
        0.444             (1.16952 2.93855e-11 0)
        0.445             (1.16973 2.92325e-11 0)
        0.446             (1.16995 2.908e-11 0)
        0.447             (1.17017 2.89278e-11 0)
        0.448             (1.17038 2.8776e-11 0)
        0.449             (1.1706 2.86246e-11 0)
         0.45             (1.17081 2.84737e-11 0)
        0.451             (1.17103 2.8323e-11 0)
        0.452             (1.17124 2.81728e-11 0)
        0.453             (1.17146 2.80229e-11 0)
        0.454             (1.17167 2.78735e-11 0)
        0.455             (1.17189 2.77244e-11 0)
        0.456             (1.1721 2.75758e-11 0)
        0.457             (1.17232 2.74276e-11 0)
        0.458             (1.17253 2.72798e-11 0)
        0.459             (1.17274 2.71323e-11 0)
         0.46             (1.17296 2.69851e-11 0)
        0.461             (1.17317 2.68384e-11 0)
        0.462             (1.17338 2.66921e-11 0)
        0.463             (1.1736 2.65462e-11 0)
        0.464             (1.17381 2.64006e-11 0)
        0.465             (1.17402 2.62554e-11 0)
        0.466             (1.17424 2.61106e-11 0)
        0.467             (1.17445 2.59662e-11 0)
        0.468             (1.17466 2.58223e-11 0)
        0.469             (1.17487 2.56788e-11 0)
         0.47             (1.17509 2.55358e-11 0)
        0.471             (1.1753 2.53931e-11 0)
        0.472             (1.17551 2.52507e-11 0)
        0.473             (1.17572 2.51089e-11 0)
        0.474             (1.17593 2.49673e-11 0)
        0.475             (1.17614 2.48262e-11 0)
        0.476             (1.17635 2.46854e-11 0)
        0.477             (1.17656 2.4545e-11 0)
        0.478             (1.17678 2.4405e-11 0)
        0.479             (1.17699 2.42654e-11 0)
         0.48             (1.1772 2.41271e-11 0)
        0.481             (1.17741 2.39882e-11 0)
        0.482             (1.17762 2.38498e-11 0)
        0.483             (1.17783 2.37119e-11 0)
        0.484             (1.17804 2.35742e-11 0)
        0.485             (1.17825 2.34368e-11 0)
        0.486             (1.17845 2.32999e-11 0)
        0.487             (1.17866 2.31633e-11 0)
        0.488             (1.17887 2.30272e-11 0)
        0.489             (1.17908 2.28915e-11 0)
         0.49             (1.17929 2.27562e-11 0)
        0.491             (1.1795 2.26214e-11 0)
        0.492             (1.17971 2.2487e-11 0)
        0.493             (1.17992 2.2353e-11 0)
        0.494             (1.18012 2.22195e-11 0)
        0.495             (1.18033 2.20862e-11 0)
        0.496             (1.18054 2.19534e-11 0)
        0.497             (1.18075 2.18209e-11 0)
        0.498             (1.18096 2.16889e-11 0)
        0.499             (1.18116 2.15572e-11 0)
          0.5             (1.18137 2.14258e-11 0)
        0.501             (1.18158 2.1295e-11 0)
        0.502             (1.18178 2.11645e-11 0)
        0.503             (1.18199 2.10345e-11 0)
        0.504             (1.1822 2.09048e-11 0)
        0.505             (1.1824 2.07754e-11 0)
        0.506             (1.18261 2.06466e-11 0)
        0.507             (1.18282 2.05181e-11 0)
        0.508             (1.18302 2.039e-11 0)
        0.509             (1.18323 2.02623e-11 0)
         0.51             (1.18343 2.01351e-11 0)
        0.511             (1.18364 2.00084e-11 0)
        0.512             (1.18384 1.98819e-11 0)
        0.513             (1.18405 1.97559e-11 0)
        0.514             (1.18425 1.96302e-11 0)
        0.515             (1.18446 1.95049e-11 0)
        0.516             (1.18466 1.93799e-11 0)
        0.517             (1.18487 1.92552e-11 0)
        0.518             (1.18507 1.91312e-11 0)
        0.519             (1.18528 1.90079e-11 0)
         0.52             (1.18548 1.88847e-11 0)
        0.521             (1.18569 1.87618e-11 0)
        0.522             (1.18589 1.86394e-11 0)
        0.523             (1.18609 1.85173e-11 0)
        0.524             (1.1863 1.83956e-11 0)
        0.525             (1.1865 1.82743e-11 0)
        0.526             (1.1867 1.81535e-11 0)
        0.527             (1.18691 1.80329e-11 0)
        0.528             (1.18711 1.7913e-11 0)
        0.529             (1.18731 1.77933e-11 0)
         0.53             (1.18752 1.76739e-11 0)
        0.531             (1.18772 1.7555e-11 0)
        0.532             (1.18792 1.74365e-11 0)
        0.533             (1.18812 1.73184e-11 0)
        0.534             (1.18833 1.72006e-11 0)
        0.535             (1.18853 1.70833e-11 0)
        0.536             (1.18873 1.69663e-11 0)
        0.537             (1.18893 1.68498e-11 0)
        0.538             (1.18913 1.67337e-11 0)
        0.539             (1.18934 1.66181e-11 0)
         0.54             (1.18954 1.65028e-11 0)
        0.541             (1.18974 1.63878e-11 0)
        0.542             (1.18994 1.62733e-11 0)
        0.543             (1.19014 1.61592e-11 0)
        0.544             (1.19034 1.60456e-11 0)
        0.545             (1.19054 1.59322e-11 0)
        0.546             (1.19074 1.58189e-11 0)
        0.547             (1.19094 1.57064e-11 0)
        0.548             (1.19114 1.55942e-11 0)
        0.549             (1.19134 1.54825e-11 0)
         0.55             (1.19154 1.53711e-11 0)
        0.551             (1.19174 1.52602e-11 0)
        0.552             (1.19194 1.51496e-11 0)
        0.553             (1.19214 1.50393e-11 0)
        0.554             (1.19234 1.49295e-11 0)
        0.555             (1.19254 1.482e-11 0)
        0.556             (1.19274 1.4711e-11 0)
        0.557             (1.19294 1.46025e-11 0)
        0.558             (1.19314 1.44944e-11 0)
        0.559             (1.19334 1.43863e-11 0)
         0.56             (1.19354 1.42788e-11 0)
        0.561             (1.19373 1.41716e-11 0)
        0.562             (1.19393 1.40649e-11 0)
        0.563             (1.19413 1.39586e-11 0)
        0.564             (1.19433 1.38526e-11 0)
        0.565             (1.19453 1.37471e-11 0)
        0.566             (1.19473 1.3642e-11 0)
        0.567             (1.19492 1.35372e-11 0)
        0.568             (1.19512 1.34329e-11 0)
        0.569             (1.19532 1.33288e-11 0)
         0.57             (1.19552 1.32253e-11 0)
        0.571             (1.19571 1.3122e-11 0)
        0.572             (1.19591 1.30192e-11 0)
        0.573             (1.19611 1.29164e-11 0)
        0.574             (1.19631 1.28143e-11 0)
        0.575             (1.1965 1.27125e-11 0)
        0.576             (1.1967 1.26113e-11 0)
        0.577             (1.1969 1.25103e-11 0)
        0.578             (1.19709 1.24097e-11 0)
        0.579             (1.19729 1.23097e-11 0)
         0.58             (1.19748 1.22098e-11 0)
        0.581             (1.19768 1.21105e-11 0)
        0.582             (1.19788 1.20115e-11 0)
        0.583             (1.19807 1.19129e-11 0)
        0.584             (1.19827 1.18146e-11 0)
        0.585             (1.19846 1.17167e-11 0)
        0.586             (1.19866 1.16192e-11 0)
        0.587             (1.19885 1.15221e-11 0)
        0.588             (1.19905 1.14254e-11 0)
        0.589             (1.19924 1.1329e-11 0)
         0.59             (1.19944 1.1233e-11 0)
        0.591             (1.19963 1.11373e-11 0)
        0.592             (1.19983 1.10421e-11 0)
        0.593             (1.20002 1.09472e-11 0)
        0.594             (1.20022 1.08528e-11 0)
        0.595             (1.20041 1.07587e-11 0)
        0.596             (1.20061 1.0665e-11 0)
        0.597             (1.2008 1.05716e-11 0)
        0.598             (1.201 1.04786e-11 0)
        0.599             (1.20119 1.03859e-11 0)
          0.6             (1.20138 1.02937e-11 0)
        0.601             (1.20158 1.02018e-11 0)