/*--------------------------------*- C++ -*----------------------------------*\
| =========                 |                                                 |
| \\      /  F ield         | OpenFOAM: The Open Source CFD Toolbox           |
|  \\    /   O peration     | Version:  2112                                  |
|   \\  /    A nd           | Website:  www.openfoam.com                      |
|    \\/     M anipulation  |                                                 |
\*---------------------------------------------------------------------------*/
FoamFile
{
    version     2.0;
    format      ascii;
    arch        "LSB;label=32;scalar=64";
    class       volScalarField;
    location    "6";
    object      p;
}
// * * * * * * * * * * * * * * * * * * * * * * * * * * * * * * * * * * * * * //

dimensions      [0 2 -2 0 0 0 0];

internalField   nonuniform List<scalar> 
66564
(
-3.84887e-09
4.97212e-06
1.13259e-05
1.65608e-05
1.94458e-05
1.95007e-05
1.64302e-05
1.00781e-05
3.97482e-07
-1.25871e-05
-2.88089e-05
-4.81472e-05
-7.04686e-05
-9.56092e-05
-0.000123424
-0.000153764
-0.000186472
-0.000221398
-0.000258373
-0.000297247
-0.000337884
-0.000380126
-0.000423832
-0.000468863
-0.000515065
-0.000562311
-0.000610488
-0.000659467
-0.000709123
-0.000759322
-0.000809929
-0.00086083
-0.000911921
-0.000963099
-0.00101426
-0.0010653
-0.00111612
-0.00116661
-0.0012167
-0.00126629
-0.00131527
-0.00136357
-0.0014111
-0.00145778
-0.00150353
-0.00154827
-0.00159193
-0.00163442
-0.00167568
-0.00171564
-0.00175423
-0.00179138
-0.00182706
-0.0018612
-0.00189375
-0.00192463
-0.00195381
-0.00198123
-0.00200683
-0.00203055
-0.00205236
-0.0020722
-0.00209
-0.00210573
-0.00211934
-0.00213078
-0.00214001
-0.00214698
-0.00215165
-0.00215396
-0.00215388
-0.00215137
-0.00214638
-0.00213887
-0.0021288
-0.00211612
-0.00210082
-0.00208284
-0.00206213
-0.00203867
-0.00201242
-0.00198332
-0.00195133
-0.0019164
-0.0018785
-0.00183758
-0.00179359
-0.00174651
-0.00169628
-0.00164287
-0.00158625
-0.00152637
-0.00146321
-0.00139673
-0.00132687
-0.00125361
-0.00117692
-0.00109676
-0.00101309
-0.000925893
-0.000835136
-0.000740799
-0.000642862
-0.000541301
-0.000436101
-0.000327259
-0.000214767
-9.86114e-05
2.12114e-05
0.000144694
0.000271819
0.000402574
0.00053695
0.000674924
0.000816453
0.000961484
0.00110997
0.00126186
0.00141708
0.00157555
0.00173718
0.0019019
0.00206961
0.00224018
0.00241347
0.00258937
0.00276772
0.00294836
0.00313108
-2.56651e-06
2.26877e-06
7.00419e-06
1.04391e-05
1.19496e-05
1.10821e-05
7.49862e-06
1.01149e-06
-8.45221e-06
-2.09188e-05
-3.63433e-05
-5.46688e-05
-7.57821e-05
-9.95653e-05
-0.000125892
-0.00015462
-0.00018563
-0.000218774
-0.000253909
-0.000290901
-0.000329609
-0.000369898
-0.000411639
-0.000454689
-0.000498918
-0.000544196
-0.000590391
-0.000637399
-0.000685103
-0.00073337
-0.000782088
-0.000831134
-0.000880391
-0.000929766
-0.000979158
-0.00102846
-0.00107757
-0.00112641
-0.00117487
-0.00122288
-0.00127033
-0.00131714
-0.00136323
-0.00140851
-0.0014529
-0.00149632
-0.00153871
-0.00157997
-0.00162005
-0.00165888
-0.00169639
-0.00173252
-0.00176721
-0.00180041
-0.00183206
-0.0018621
-0.00189047
-0.00191712
-0.00194199
-0.00196504
-0.00198622
-0.00200546
-0.00202272
-0.00203795
-0.00205111
-0.00206213
-0.00207099
-0.00207762
-0.002082
-0.00208406
-0.00208377
-0.0020811
-0.00207598
-0.00206839
-0.00205827
-0.0020456
-0.00203034
-0.00201244
-0.00199186
-0.00196857
-0.00194251
-0.00191365
-0.00188193
-0.00184733
-0.0018098
-0.00176929
-0.00172575
-0.00167915
-0.00162947
-0.00157665
-0.00152066
-0.00146145
-0.00139902
-0.0013333
-0.00126425
-0.00119185
-0.00111607
-0.00103687
-0.000954211
-0.00086807
-0.000778428
-0.00068526
-0.000588541
-0.000488255
-0.000384385
-0.000276929
-0.000165876
-5.1219e-05
6.70461e-05
0.000188912
0.000314365
0.000443389
0.000575972
0.000712089
0.000851702
0.000994759
0.00114121
0.00129101
0.00144407
0.00160032
0.00175968
0.00192207
0.0020874
0.00225552
0.00242632
0.00259967
0.00277543
0.00295341
0.00313345
-5.55583e-06
8.15129e-08
4.35032e-06
6.94775e-06
7.7364e-06
6.32721e-06
2.42466e-06
-4.13805e-06
-1.34603e-05
-2.55467e-05
-4.03948e-05
-5.79468e-05
-7.81295e-05
-0.000100853
-0.000125995
-0.000153445
-0.000183077
-0.000214773
-0.000248406
-0.000283836
-0.000320939
-0.000359597
-0.000399667
-0.000441033
-0.000483576
-0.000527157
-0.000571661
-0.000616972
-0.000662974
-0.00070956
-0.000756618
-0.000804027
-0.00085167
-0.000899451
-0.000947272
-0.00099503
-0.00104263
-0.00108998
-0.00113698
-0.00118356
-0.00122961
-0.00127506
-0.00131983
-0.00136382
-0.00140696
-0.00144918
-0.00149039
-0.00153052
-0.00156951
-0.00160728
-0.00164378
-0.00167894
-0.00171271
-0.00174502
-0.00177581
-0.00180504
-0.00183264
-0.00185855
-0.00188273
-0.00190512
-0.00192568
-0.00194433
-0.00196105
-0.00197579
-0.00198848
-0.00199909
-0.00200755
-0.00201385
-0.00201792
-0.00201971
-0.0020192
-0.00201633
-0.00201107
-0.00200336
-0.00199317
-0.00198047
-0.00196521
-0.00194735
-0.00192685
-0.00190368
-0.00187778
-0.0018491
-0.00181761
-0.00178328
-0.00174606
-0.0017059
-0.00166275
-0.00161659
-0.00156738
-0.00151509
-0.00145965
-0.00140106
-0.00133927
-0.00127424
-0.00120594
-0.00113432
-0.00105937
-0.000981045
-0.000899314
-0.000814148
-0.000725534
-0.000633444
-0.000537851
-0.000438743
-0.000336108
-0.00022994
-0.000120224
-6.95744e-06
0.000109859
0.000230217
0.00035411
0.00048152
0.000612428
0.00074681
0.000884628
0.00102584
0.00117038
0.00131821
0.00146925
0.00162343
0.00178066
0.00194086
0.00210394
0.00226978
0.00243823
0.00260919
0.0027825
0.002958
0.0031355
-7.86926e-06
-1.07345e-06
3.44793e-06
5.82909e-06
6.31802e-06
4.63696e-06
5.63158e-07
-6.03606e-06
-1.5224e-05
-2.70266e-05
-4.1428e-05
-5.83788e-05
-7.78298e-05
-9.96909e-05
-0.00012388
-0.000150283
-0.000178785
-0.000209288
-0.000241661
-0.000275783
-0.000311544
-0.000348811
-0.000387461
-0.000427384
-0.000468455
-0.000510572
-0.000553614
-0.000597455
-0.000641989
-0.000687111
-0.000732709
-0.000778675
-0.0008249
-0.000871275
-0.000917709
-0.000964105
-0.00101036
-0.00105639
-0.0011021
-0.00114741
-0.00119222
-0.00123645
-0.00128003
-0.00132286
-0.00136489
-0.00140602
-0.00144617
-0.00148529
-0.0015233
-0.00156013
-0.00159572
-0.00163001
-0.00166294
-0.00169445
-0.00172447
-0.00175296
-0.00177986
-0.00180511
-0.00182865
-0.00185045
-0.00187045
-0.00188858
-0.0019048
-0.00191908
-0.00193135
-0.00194157
-0.00194969
-0.00195567
-0.00195946
-0.00196102
-0.0019603
-0.00195727
-0.00195187
-0.00194406
-0.00193381
-0.00192109
-0.00190584
-0.00188802
-0.0018676
-0.00184454
-0.00181878
-0.00179028
-0.00175901
-0.00172493
-0.00168799
-0.00164815
-0.00160537
-0.00155961
-0.00151085
-0.00145903
-0.00140412
-0.00134608
-0.0012849
-0.00122051
-0.00115289
-0.00108199
-0.00100781
-0.000930298
-0.00084942
-0.000765154
-0.000677488
-0.000586389
-0.00049183
-0.000393806
-0.000292308
-0.000187321
-7.88309e-05
3.31609e-05
0.000148648
0.000267625
0.000390088
0.000516021
0.000645397
0.000778191
0.00091437
0.00105389
0.0011967
0.00134273
0.00149192
0.00164421
0.0017995
0.00195771
0.00211875
0.00228251
0.00244883
0.00261762
0.0027887
0.00296195
0.00313715
-8.57766e-06
-6.55081e-07
4.2843e-06
6.67028e-06
7.02795e-06
5.19345e-06
1.00652e-06
-5.595e-06
-1.46654e-05
-2.62144e-05
-4.02246e-05
-5.6667e-05
-7.54718e-05
-9.65824e-05
-0.000119919
-0.000145378
-0.000172869
-0.000202282
-0.0002335
-0.000266426
-0.000300935
-0.000336916
-0.000374254
-0.000412826
-0.000452525
-0.000493259
-0.000534909
-0.000577362
-0.000620512
-0.000664242
-0.000708454
-0.000753047
-0.000797907
-0.000842937
-0.000888042
-0.000933124
-0.000978089
-0.00102285
-0.00106731
-0.00111139
-0.001155
-0.00119806
-0.00124048
-0.0012822
-0.00132314
-0.00136321
-0.00140235
-0.00144048
-0.00147754
-0.00151345
-0.00154815
-0.0015816
-0.00161371
-0.00164443
-0.0016737
-0.00170148
-0.00172769
-0.00175228
-0.00177522
-0.00179644
-0.00181588
-0.0018335
-0.00184925
-0.00186309
-0.00187495
-0.00188479
-0.00189258
-0.00189826
-0.00190178
-0.0019031
-0.0019022
-0.001899
-0.00189348
-0.00188558
-0.00187529
-0.00186255
-0.00184731
-0.00182954
-0.00180921
-0.00178626
-0.00176065
-0.00173234
-0.00170129
-0.00166747
-0.00163082
-0.00159131
-0.0015489
-0.00150356
-0.00145523
-0.0014039
-0.00134952
-0.00129205
-0.00123146
-0.00116771
-0.00110078
-0.00103061
-0.000957196
-0.000880493
-0.00080047
-0.000717105
-0.000630382
-0.000540271
-0.000446744
-0.000349798
-0.000249426
-0.000145612
-3.83397e-05
7.23879e-05
0.000186562
0.000304173
0.000425221
0.00054969
0.000677553
0.000808781
0.000943343
0.0010812
0.00122229
0.00136656
0.00151394
0.00166436
0.00181775
0.00197401
0.00213305
0.00229476
0.002459
0.00262566
0.00279457
0.0029656
0.00313857
-6.82184e-06
1.9139e-06
7.20576e-06
9.64209e-06
9.93499e-06
8.0001e-06
3.74572e-06
-2.86375e-06
-1.18361e-05
-2.31679e-05
-3.68537e-05
-5.28521e-05
-7.11133e-05
-9.15723e-05
-0.000114152
-0.000138781
-0.000165358
-0.000193783
-0.000223962
-0.000255785
-0.00028914
-0.000323933
-0.000360046
-0.000397366
-0.000435798
-0.000475232
-0.000515569
-0.000556709
-0.000598538
-0.000640947
-0.000683838
-0.000727114
-0.000770665
-0.000814402
-0.000858224
-0.000902037
-0.000945751
-0.000989277
-0.00103253
-0.00107541
-0.00111786
-0.00115977
-0.00120108
-0.00124171
-0.00128158
-0.00132062
-0.00135876
-0.00139592
-0.00143204
-0.00146705
-0.00150089
-0.00153349
-0.00156479
-0.00159473
-0.00162327
-0.00165033
-0.00167586
-0.00169982
-0.00172214
-0.00174278
-0.00176168
-0.0017788
-0.00179408
-0.00180747
-0.00181892
-0.0018284
-0.00183586
-0.00184123
-0.00184448
-0.00184558
-0.00184448
-0.00184112
-0.00183547
-0.00182749
-0.00181715
-0.00180439
-0.00178917
-0.00177146
-0.00175121
-0.00172838
-0.00170292
-0.0016748
-0.00164398
-0.00161041
-0.00157406
-0.00153488
-0.00149285
-0.00144791
-0.00140004
-0.00134919
-0.00129533
-0.00123843
-0.00117844
-0.00111534
-0.00104908
-0.000979652
-0.000907006
-0.000831114
-0.000751949
-0.000669488
-0.000583711
-0.000494589
-0.000402095
-0.00030623
-0.000206984
-0.000104341
1.7138e-06
0.000111176
0.000224036
0.000340286
0.000459923
0.000582933
0.000709285
0.000838952
0.000971905
0.0011081
0.00124749
0.00139
0.00153558
0.00168415
0.00183565
0.00198998
0.00214703
0.00230671
0.00246888
0.00263343
0.00280019
0.00296903
0.00313978
-2.18717e-06
6.99867e-06
1.24878e-05
1.49219e-05
1.51408e-05
1.31223e-05
8.79662e-06
2.17582e-06
-6.72903e-06
-1.79061e-05
-3.13261e-05
-4.69645e-05
-6.47715e-05
-8.4674e-05
-0.000106612
-0.000130511
-0.000156277
-0.000183831
-0.000213074
-0.000243903
-0.000276221
-0.000309923
-0.000344906
-0.000381082
-0.000418339
-0.000456574
-0.000495699
-0.000535607
-0.000576193
-0.00061736
-0.000659004
-0.000701027
-0.000743337
-0.000785836
-0.000828432
-0.000871032
-0.000913546
-0.000955888
-0.000997973
-0.00103972
-0.00108103
-0.00112184
-0.00116208
-0.00120166
-0.0012405
-0.00127854
-0.00131571
-0.00135193
-0.00138713
-0.00142125
-0.00145423
-0.001486
-0.00151651
-0.0015457
-0.0015735
-0.00159986
-0.00162473
-0.00164805
-0.00166978
-0.00168984
-0.00170821
-0.00172483
-0.00173965
-0.0017526
-0.00176366
-0.00177278
-0.0017799
-0.00178498
-0.00178797
-0.00178884
-0.00178754
-0.00178403
-0.00177825
-0.00177019
-0.00175979
-0.00174701
-0.00173181
-0.00171415
-0.00169399
-0.00167127
-0.00164596
-0.00161804
-0.00158744
-0.00155414
-0.00151808
-0.00147924
-0.00143758
-0.00139305
-0.00134562
-0.00129525
-0.00124192
-0.00118557
-0.00112619
-0.00106373
-0.000998156
-0.000929449
-0.000857568
-0.000782485
-0.000704178
-0.000622617
-0.000537778
-0.000449638
-0.000358175
-0.000263385
-0.000165254
-6.37721e-05
4.10714e-05
0.000149273
0.000260828
0.000375729
0.000493968
0.000615529
0.000740386
0.00086851
0.000999874
0.00113443
0.00127213
0.00141291
0.00155671
0.00170346
0.00185309
0.0020055
0.00216059
0.00231827
0.0024784
0.00264087
0.00280552
0.0029722
0.00314075
5.51456e-06
1.47964e-05
2.0288e-05
2.26253e-05
2.27168e-05
2.05681e-05
1.61476e-05
9.48608e-06
5.99774e-07
-1.04739e-05
-2.3709e-05
-3.90677e-05
-5.64965e-05
-7.59433e-05
-9.73386e-05
-0.000120604
-0.00014567
-0.000172452
-0.000200855
-0.0002308
-0.000262181
-0.000294897
-0.00032886
-0.00036398
-0.000400155
-0.00043729
-0.000475287
-0.000514049
-0.000553477
-0.000593473
-0.000633942
-0.000674786
-0.000715917
-0.00075724
-0.000798667
-0.000840109
-0.000881477
-0.000922687
-0.000963658
-0.0010043
-0.00104454
-0.0010843
-0.00112349
-0.00116205
-0.00119991
-0.00123698
-0.00127321
-0.0013085
-0.00134281
-0.00137607
-0.00140822
-0.00143918
-0.00146892
-0.00149735
-0.00152444
-0.00155011
-0.00157433
-0.00159703
-0.00161817
-0.00163768
-0.00165553
-0.00167166
-0.00168602
-0.00169855
-0.00170923
-0.00171798
-0.00172478
-0.00172956
-0.0017323
-0.00173295
-0.00173146
-0.00172778
-0.00172189
-0.00171374
-0.00170329
-0.00169048
-0.0016753
-0.0016577
-0.00163762
-0.00161502
-0.00158987
-0.00156214
-0.00153177
-0.00149873
-0.00146297
-0.00142447
-0.00138318
-0.00133905
-0.00129206
-0.00124218
-0.00118936
-0.00113358
-0.00107479
-0.00101297
-0.000948077
-0.000880091
-0.000808974
-0.000734699
-0.000657244
-0.000576577
-0.00049267
-0.000405505
-0.000315066
-0.000221343
-0.000124321
-2.39901e-05
7.96532e-05
0.000186605
0.000296864
0.000410428
0.000527284
0.000647412
0.00077079
0.000897391
0.00102719
0.00116013
0.00129616
0.00143524
0.00157728
0.00172224
0.00187002
0.00202055
0.00217371
0.00232941
0.00248754
0.00264796
0.00281053
0.00297509
0.0031415
1.6379e-05
2.54202e-05
3.06995e-05
3.28344e-05
3.27067e-05
3.03607e-05
2.57884e-05
1.90225e-05
1.01045e-05
-9.34638e-07
-1.40579e-05
-2.92128e-05
-4.63558e-05
-6.54331e-05
-8.63693e-05
-0.000109106
-0.00013357
-0.000159675
-0.000187347
-0.000216497
-0.000247033
-0.000278867
-0.000311908
-0.000346065
-0.00038125
-0.000417368
-0.000454321
-0.000492019
-0.000530367
-0.000569267
-0.000608629
-0.000648366
-0.000688383
-0.000728593
-0.000768911
-0.000809249
-0.000849526
-0.000889656
-0.000929558
-0.000969151
-0.00100836
-0.0010471
-0.00108529
-0.00112288
-0.00115977
-0.00119591
-0.00123122
-0.00126562
-0.00129907
-0.00133148
-0.00136281
-0.00139299
-0.00142197
-0.00144968
-0.00147606
-0.00150107
-0.00152464
-0.00154674
-0.0015673
-0.00158628
-0.00160361
-0.00161926
-0.00163317
-0.0016453
-0.00165559
-0.00166399
-0.00167047
-0.00167497
-0.00167746
-0.00167789
-0.00167621
-0.00167238
-0.00166637
-0.00165813
-0.00164762
-0.00163481
-0.00161964
-0.00160208
-0.00158209
-0.00155962
-0.00153463
-0.00150709
-0.00147695
-0.00144417
-0.00140872
-0.00137055
-0.00132962
-0.0012859
-0.00123936
-0.00118995
-0.00113766
-0.00108242
-0.00102423
-0.000963049
-0.000898841
-0.000831573
-0.000761216
-0.000687745
-0.000611137
-0.000531358
-0.000448378
-0.000362181
-0.000272758
-0.000180096
-8.41758e-05
1.5011e-05
0.000117463
0.000223174
0.000332149
0.000444388
0.000559875
0.000678586
0.000800501
0.000925597
0.00105384
0.00118519
0.00131958
0.00145697
0.00159729
0.00174047
0.00188644
0.0020351
0.00218637
0.00234014
0.00249628
0.00265469
0.00281522
0.0029777
0.003142
3.04287e-05
3.89357e-05
4.38046e-05
4.5585e-05
4.51408e-05
4.25122e-05
3.7702e-05
3.07647e-05
2.17382e-05
1.06581e-05
-2.42004e-06
-1.74569e-05
-3.43994e-05
-5.31856e-05
-7.37609e-05
-9.60598e-05
-0.00012001
-0.000145542
-0.000172578
-0.000201026
-0.000230813
-0.000261854
-0.000294059
-0.000327345
-0.000361627
-0.000396807
-0.000432797
-0.000469511
-0.000506851
-0.000544731
-0.00058306
-0.000621753
-0.000660724
-0.000699886
-0.000739153
-0.000778447
-0.000817687
-0.000856788
-0.000895669
-0.000934256
-0.00097247
-0.00101023
-0.00104747
-0.00108411
-0.00112008
-0.00115531
-0.00118973
-0.00122328
-0.00125588
-0.00128748
-0.00131802
-0.00134743
-0.00137567
-0.00140266
-0.00142837
-0.00145272
-0.00147568
-0.00149718
-0.00151718
-0.00153562
-0.00155246
-0.00156763
-0.0015811
-0.00159283
-0.00160275
-0.00161081
-0.00161698
-0.0016212
-0.00162345
-0.00162366
-0.00162179
-0.00161782
-0.00161169
-0.00160336
-0.0015928
-0.00157997
-0.00156483
-0.00154732
-0.00152741
-0.00150506
-0.00148024
-0.00145289
-0.00142298
-0.00139046
-0.00135531
-0.00131748
-0.00127692
-0.0012336
-0.0011875
-0.00113858
-0.0010868
-0.00103212
-0.000974526
-0.000913983
-0.000850451
-0.000783898
-0.000714299
-0.000641629
-0.00056586
-0.000486962
-0.000404904
-0.000319672
-0.000231257
-0.000139645
-4.48191e-05
5.32285e-05
0.000154496
0.000258979
0.000366682
0.000477608
0.000591738
0.000709046
0.000829516
0.000953126
0.00107984
0.00120961
0.00134239
0.00147811
0.00161673
0.00175817
0.00190234
0.00204917
0.00219857
0.00235043
0.00250464
0.00266107
0.00281959
0.00298003
0.00314227
4.7632e-05
5.53542e-05
5.96128e-05
6.09028e-05
6.00208e-05
5.70093e-05
5.18792e-05
4.46775e-05
3.54567e-05
2.42677e-05
1.11485e-05
-3.84989e-06
-2.06679e-05
-3.92577e-05
-5.95604e-05
-8.15071e-05
-0.000105039
-0.000130088
-0.000156572
-0.000184416
-0.000213546
-0.000243878
-0.000275333
-0.000307832
-0.000341288
-0.00037561
-0.000410716
-0.000446519
-0.000482927
-0.000519857
-0.000557226
-0.000594945
-0.000632935
-0.000671111
-0.00070939
-0.000747698
-0.000785953
-0.000824075
-0.000861987
-0.000899612
-0.000936874
-0.000973699
-0.00101001
-0.00104575
-0.00108083
-0.00111518
-0.00114875
-0.00118145
-0.00121324
-0.00124405
-0.00127382
-0.0013025
-0.00133002
-0.00135632
-0.00138136
-0.00140508
-0.00142743
-0.00144835
-0.0014678
-0.00148572
-0.00150207
-0.00151679
-0.00152983
-0.00154116
-0.00155071
-0.00155844
-0.0015643
-0.00156826
-0.00157026
-0.00157026
-0.00156822
-0.0015641
-0.00155786
-0.00154945
-0.00153884
-0.001526
-0.00151087
-0.00149341
-0.00147359
-0.00145137
-0.0014267
-0.00139955
-0.00136987
-0.00133762
-0.00130276
-0.00126526
-0.00122507
-0.00118216
-0.0011365
-0.00108806
-0.0010368
-0.000982682
-0.000925687
-0.00086578
-0.000802921
-0.000737081
-0.000668238
-0.000596363
-0.000521425
-0.000443401
-0.000362261
-0.00027799
-0.000190575
-0.000100004
-6.26535e-06
9.06494e-05
0.000190741
0.000294007
0.000400453
0.000510077
0.000622862
0.000738784
0.000857826
0.000979967
0.00110517
0.00123339
0.00136456
0.00149865
0.00163559
0.00177531
0.00191771
0.00206274
0.0022103
0.00236029
0.00251259
0.00266708
0.00282363
0.00298207
0.00314228
6.79148e-05
7.46263e-05
7.81119e-05
7.87746e-05
7.73253e-05
7.38266e-05
6.82766e-05
6.07239e-05
5.12307e-05
3.9839e-05
2.65991e-05
1.15647e-05
-5.21668e-06
-2.36951e-05
-4.38081e-05
-6.54978e-05
-8.86999e-05
-0.000113345
-0.000139368
-0.000166697
-0.000195252
-0.000224961
-0.00025575
-0.000287538
-0.000320245
-0.000353787
-0.000388081
-0.000423044
-0.000458594
-0.000494645
-0.000531121
-0.000567936
-0.00060501
-0.000642263
-0.000679617
-0.000716994
-0.000754317
-0.000791511
-0.0008285
-0.000865207
-0.00090156
-0.000937486
-0.000972917
-0.00100778
-0.001042
-0.00107551
-0.00110825
-0.00114015
-0.00117115
-0.0012012
-0.00123023
-0.00125819
-0.00128501
-0.00131065
-0.00133505
-0.00135815
-0.00137991
-0.00140027
-0.00141918
-0.00143659
-0.00145246
-0.00146673
-0.00147936
-0.00149029
-0.00149948
-0.00150689
-0.00151246
-0.00151615
-0.00151791
-0.0015177
-0.00151549
-0.00151124
-0.00150488
-0.0014964
-0.00148575
-0.0014729
-0.00145779
-0.00144038
-0.00142065
-0.00139855
-0.00137404
-0.00134708
-0.00131762
-0.00128564
-0.00125108
-0.00121391
-0.00117409
-0.00113159
-0.00108638
-0.00103842
-0.000987678
-0.000934123
-0.000877727
-0.000818455
-0.000756266
-0.000691136
-0.000623044
-0.000551959
-0.000477847
-0.000400689
-0.000320462
-0.000237146
-0.000150726
-6.11898e-05
3.14712e-05
0.000127262
0.000226187
0.000328249
0.000433449
0.000541784
0.000653238
0.000767788
0.000885418
0.00100611
0.00112981
0.00125649
0.00138609
0.00151856
0.00165385
0.00179187
0.00193254
0.0020758
0.00222155
0.00236971
0.00252013
0.00267271
0.00282733
0.00298381
0.00314203
9.11577e-05
9.66878e-05
9.92408e-05
9.9145e-05
9.70226e-05
9.29164e-05
8.68456e-05
7.8859e-05
6.90018e-05
5.73254e-05
4.38863e-05
2.87286e-05
1.18987e-05
-6.54537e-06
-2.65563e-05
-4.80734e-05
-7.10266e-05
-9.53564e-05
-0.000121003
-0.000147893
-0.000175958
-0.000205128
-0.000235327
-0.00026648
-0.000298515
-0.000331351
-0.000364905
-0.0003991
-0.000433861
-0.000469104
-0.000504752
-0.000540727
-0.000576947
-0.000613339
-0.000649826
-0.000686329
-0.000722774
-0.000759089
-0.000795201
-0.000831035
-0.00086652
-0.00090159
-0.000936173
-0.000970197
-0.00100359
-0.0010363
-0.00106825
-0.00109937
-0.00112962
-0.00115893
-0.00118725
-0.00121451
-0.00124066
-0.00126566
-0.00128943
-0.00131194
-0.00133312
-0.00135293
-0.00137132
-0.00138824
-0.00140363
-0.00141747
-0.00142969
-0.00144024
-0.00144908
-0.00145616
-0.00146144
-0.00146487
-0.00146641
-0.001466
-0.00146363
-0.00145923
-0.00145278
-0.00144422
-0.00143354
-0.00142067
-0.00140558
-0.00138823
-0.00136859
-0.00134662
-0.00132226
-0.00129549
-0.00126627
-0.00123455
-0.00120029
-0.00116345
-0.001124
-0.00108191
-0.00103714
-0.000989669
-0.000939449
-0.000886457
-0.00083066
-0.000772018
-0.000710497
-0.000646073
-0.000578728
-0.000508428
-0.000435139
-0.000358842
-0.000279522
-0.000197156
-0.000111725
-2.32155e-05
6.83754e-05
0.000163051
0.000260821
0.000361691
0.000465659
0.000572717
0.000682852
0.000796046
0.00091228
0.00103153
0.00115376
0.00127892
0.00140696
0.00153784
0.00167149
0.00180784
0.00194681
0.00208833
0.00223231
0.00237866
0.00252725
0.00267796
0.00283068
0.00298524
0.00314151
0.000117257
0.000121429
0.000122914
0.000121951
0.000119037
0.000114224
0.000107536
9.90174e-05
8.8712e-05
7.66759e-05
6.29516e-05
4.7586e-05
3.06315e-05
1.21347e-05
-7.8555e-06
-2.92731e-05
-5.20606e-05
-7.61602e-05
-0.000101507
-0.000128039
-0.000155694
-0.000184401
-0.000214087
-0.000244684
-0.000276121
-0.00030832
-0.000341206
-0.000374707
-0.000408743
-0.000443244
-0.000478129
-0.000513325
-0.000548754
-0.000584343
-0.000620016
-0.000655699
-0.00069132
-0.000726806
-0.000762087
-0.000797093
-0.000831758
-0.00086601
-0.000899784
-0.00093301
-0.000965621
-0.000997551
-0.00102873
-0.00105912
-0.00108864
-0.00111724
-0.00114486
-0.00117146
-0.00119697
-0.00122134
-0.00124451
-0.00126643
-0.00128706
-0.00130634
-0.00132422
-0.00134066
-0.0013556
-0.00136901
-0.00138083
-0.00139101
-0.00139951
-0.00140628
-0.00141128
-0.00141445
-0.00141576
-0.00141517
-0.00141263
-0.0014081
-0.00140155
-0.00139293
-0.00138221
-0.00136933
-0.00135427
-0.00133698
-0.00131744
-0.00129558
-0.00127139
-0.00124481
-0.00121581
-0.00118435
-0.00115039
-0.00111388
-0.00107481
-0.00103313
-0.000988815
-0.000941823
-0.000892129
-0.000839698
-0.000784495
-0.000726482
-0.000665627
-0.000601908
-0.000535304
-0.000465784
-0.000393314
-0.000317879
-0.00023946
-0.000158036
-7.35854e-05
1.39022e-05
0.00010443
0.000198002
0.000294631
0.000394322
0.000497068
0.000602862
0.000711692
0.000823543
0.000938397
0.00105622
0.00117699
0.00130065
0.00142716
0.00155647
0.00168852
0.00182322
0.00196051
0.00210032
0.00224256
0.00238714
0.00253393
0.00268281
0.00283366
0.00298635
0.0031407
0.000146069
0.000148748
0.000149037
0.00014709
0.000143288
0.000137676
0.000130276
0.000121135
0.000110304
9.78217e-05
8.3731e-05
6.80837e-05
5.09232e-05
3.22944e-05
1.22556e-05
-9.14048e-06
-3.18425e-05
-5.57877e-05
-8.09151e-05
-0.00010717
-0.00013449
-0.000162808
-0.000192059
-0.000222175
-0.000253087
-0.000284722
-0.000317009
-0.000349881
-0.000383263
-0.000417082
-0.000451267
-0.000485743
-0.000520439
-0.000555281
-0.000590194
-0.000625109
-0.000659955
-0.000694661
-0.00072916
-0.000763386
-0.000797273
-0.000830751
-0.000863755
-0.000896221
-0.000928081
-0.000959268
-0.000989722
-0.00101939
-0.00104821
-0.00107613
-0.0011031
-0.00112905
-0.00115393
-0.0011777
-0.00120029
-0.00122165
-0.00124174
-0.00126051
-0.0012779
-0.00129387
-0.00130837
-0.00132136
-0.00133279
-0.00134261
-0.00135078
-0.00135725
-0.00136196
-0.00136489
-0.00136598
-0.0013652
-0.00136251
-0.00135785
-0.00135121
-0.00134253
-0.00133177
-0.00131889
-0.00130386
-0.00128664
-0.00126719
-0.00124546
-0.00122142
-0.00119504
-0.00116628
-0.00113508
-0.00110141
-0.00106525
-0.00102655
-0.000985281
-0.000941409
-0.000894903
-0.000845731
-0.000793858
-0.000739245
-0.000681859
-0.00062167
-0.000558654
-0.000492788
-0.000424045
-0.000352394
-0.000277816
-0.000200295
-0.000119805
-3.63282e-05
5.0145e-05
0.000139619
0.0002321
0.0003276
0.000426122
0.000527658
0.000632201
0.000739741
0.000850264
0.00096375
0.00108017
0.00119949
0.00132167
0.00144668
0.00157444
0.0017049
0.00183798
0.00197363
0.00211176
0.00225229
0.00239512
0.00254014
0.00268723
0.00283627
0.0029871
0.00313959
0.000177445
0.000178517
0.000177502
0.000174474
0.000169693
0.000163187
0.000154989
0.00014515
0.000133708
0.0001207
0.000106172
9.01626e-05
7.27183e-05
5.38914e-05
3.37283e-05
1.22749e-05
-1.04109e-05
-3.42755e-05
-5.92641e-05
-8.53172e-05
-0.000112376
-0.000140384
-0.000169274
-0.000198981
-0.000229438
-0.000260581
-0.00029234
-0.000324646
-0.000357438
-0.000390639
-0.000424183
-0.000457998
-0.000492015
-0.000526162
-0.000560369
-0.000594566
-0.000628688
-0.000662663
-0.000696429
-0.00072992
-0.000763072
-0.000795818
-0.000828094
-0.000859837
-0.000890978
-0.000921456
-0.000951216
-0.0009802
-0.00100835
-0.00103562
-0.00106194
-0.00108728
-0.00111156
-0.00113474
-0.00115677
-0.0011776
-0.00119717
-0.00121543
-0.00123235
-0.00124787
-0.00126195
-0.00127454
-0.00128559
-0.00129506
-0.0013029
-0.00130907
-0.00131351
-0.0013162
-0.00131708
-0.00131612
-0.00131327
-0.0013085
-0.00130177
-0.00129303
-0.00128224
-0.00126937
-0.00125437
-0.00123722
-0.00121786
-0.00119627
-0.00117239
-0.00114621
-0.00111768
-0.00108675
-0.00105338
-0.00101755
-0.000979231
-0.000938371
-0.000894945
-0.000848923
-0.000800272
-0.000748953
-0.000694928
-0.000638167
-0.000578643
-0.00051633
-0.000451201
-0.000383232
-0.000312397
-0.000238675
-0.000162046
-8.24833e-05
2.80264e-08
8.54945e-05
0.000173924
0.000265326
0.000359708
0.000457072
0.000557409
0.000660714
0.000766979
0.000876189
0.000988322
0.00110335
0.00122125
0.00134198
0.00146549
0.00159173
0.00172063
0.00185212
0.00198615
0.00212263
0.00226149
0.00240261
0.00254589
0.00269122
0.00283847
0.0029875
0.00313816
0.000211233
0.000210601
0.000208196
0.000204006
0.000198151
0.000190672
0.000181604
0.000170983
0.000158852
0.00014525
0.000130208
0.000113763
9.59713e-05
7.68717e-05
5.6508e-05
3.49303e-05
1.21878e-05
-1.16721e-05
-3.6593e-05
-6.25172e-05
-8.93916e-05
-0.000117161
-0.000145762
-0.000175131
-0.000205206
-0.000235923
-0.000267221
-0.00029903
-0.000331289
-0.000363933
-0.000396894
-0.000430105
-0.000463497
-0.000497002
-0.000530554
-0.000564085
-0.000597528
-0.000630823
-0.000663902
-0.000696703
-0.000729163
-0.000761218
-0.000792806
-0.000823861
-0.000854318
-0.000884123
-0.000913219
-0.000941551
-0.000969061
-0.0009957
-0.00102142
-0.00104616
-0.00106986
-0.00109248
-0.00111397
-0.00113428
-0.00115335
-0.00117113
-0.00118759
-0.00120268
-0.00121634
-0.00122854
-0.00123922
-0.00124836
-0.00125588
-0.00126176
-0.00126594
-0.0012684
-0.00126908
-0.00126794
-0.00126495
-0.00126006
-0.00125325
-0.00124445
-0.00123364
-0.00122077
-0.00120582
-0.00118873
-0.00116948
-0.00114802
-0.00112432
-0.00109834
-0.00107004
-0.00103937
-0.00100631
-0.000970828
-0.000932876
-0.000892423
-0.000849442
-0.000803903
-0.000755768
-0.000704999
-0.000651561
-0.000595427
-0.000536568
-0.000474956
-0.000410563
-0.000343367
-0.000273346
-0.000200476
-0.000124732
-4.60891e-05
3.54632e-05
0.000119931
0.000207326
0.00029766
0.000390935
0.00048715
0.0005863
0.00068838
0.000793385
0.000901297
0.00101209
0.00112575
0.00124225
0.00136154
0.00148358
0.00160832
0.00173568
0.00186562
0.00199805
0.00213292
0.00227012
0.00240956
0.00255114
0.00269475
0.00284025
0.00298751
0.00313638
0.000247282
0.000244871
0.000240995
0.00023556
0.000228564
0.000220046
0.000210031
0.000198559
0.000185671
0.000171398
0.000155771
0.000138831
0.000120619
0.000101174
8.05403e-05
5.87669e-05
3.58948e-05
1.19713e-05
-1.29492e-05
-3.88163e-05
-6.55788e-05
-9.31786e-05
-0.000121557
-0.000150656
-0.000180418
-0.000210778
-0.000241676
-0.000273053
-0.000304842
-0.000336988
-0.000369424
-0.000402084
-0.000434904
-0.000467821
-0.000500768
-0.00053368
-0.000566496
-0.000599155
-0.000631594
-0.000663747
-0.000695557
-0.000726961
-0.000757896
-0.000788298
-0.00081811
-0.000847277
-0.000875741
-0.000903449
-0.00093035
-0.000956393
-0.000981524
-0.00100569
-0.00102884
-0.00105093
-0.0010719
-0.0010917
-0.00111028
-0.0011276
-0.00114362
-0.00115828
-0.00117155
-0.00118337
-0.00119371
-0.00120251
-0.00120973
-0.00121533
-0.00121926
-0.0012215
-0.00122198
-0.00122067
-0.00121754
-0.00121255
-0.00120565
-0.0011968
-0.00118597
-0.00117312
-0.00115821
-0.0011412
-0.00112205
-0.00110074
-0.00107721
-0.00105144
-0.00102337
-0.00099298
-0.00096023
-0.000925083
-0.000887501
-0.000847455
-0.00080492
-0.000759861
-0.000712239
-0.000662019
-0.000609169
-0.000553661
-0.000495466
-0.000434554
-0.000370896
-0.000304473
-0.000235263
-0.000163238
-8.83717e-05
-1.06436e-05
6.99562e-05
0.000153434
0.000239804
0.000329078
0.000421256
0.000516333
0.000614307
0.000715177
0.000818937
0.000925567
0.00103505
0.00114736
0.00126247
0.00138035
0.00150094
0.0016242
0.00175005
0.00187845
0.00200932
0.00214259
0.00227817
0.00241597
0.00255588
0.0026978
0.00284159
0.00298712
0.00313424
0.000285466
0.000281196
0.000275774
0.000269034
0.000260832
0.000251199
0.000240177
0.000227796
0.000214082
0.000199071
0.000182797
0.000165292
0.000146591
0.000126735
0.000105766
8.37236e-05
6.0653e-05
3.66004e-05
1.16112e-05
-1.42668e-05
-4.09808e-05
-6.84769e-05
-9.6701e-05
-0.000125595
-0.000155104
-0.000185171
-0.000215735
-0.000246736
-0.000278121
-0.000309825
-0.000341791
-0.000373956
-0.000406258
-0.000438637
-0.000471029
-0.000503373
-0.000535609
-0.000567677
-0.000599515
-0.000631065
-0.000662266
-0.000693056
-0.000723374
-0.000753162
-0.000782365
-0.000810926
-0.000838792
-0.000865909
-0.000892231
-0.000917704
-0.000942276
-0.000965896
-0.000988516
-0.00101009
-0.00103055
-0.00104986
-0.00106798
-0.00108486
-0.00110045
-0.00111471
-0.00112759
-0.00113905
-0.00114904
-0.00115752
-0.00116445
-0.00116979
-0.00117349
-0.00117551
-0.0011758
-0.00117434
-0.00117108
-0.00116599
-0.00115901
-0.00115012
-0.00113927
-0.00112644
-0.00111158
-0.00109464
-0.00107561