/*--------------------------------*- C++ -*----------------------------------*\
| =========                 |                                                 |
| \\      /  F ield         | OpenFOAM: The Open Source CFD Toolbox           |
|  \\    /   O peration     | Version:  2112                                  |
|   \\  /    A nd           | Website:  www.openfoam.com                      |
|    \\/     M anipulation  |                                                 |
\*---------------------------------------------------------------------------*/
FoamFile
{
    version     2.0;
    format      ascii;
    arch        "LSB;label=32;scalar=64";
    class       surfaceScalarField;
    location    "6";
    object      phi;
}
// * * * * * * * * * * * * * * * * * * * * * * * * * * * * * * * * * * * * * //

dimensions      [0 3 -1 0 0 0 0];

oriented        oriented;

internalField   nonuniform List<scalar> 
132612
(
-2.49135e-11
2.49605e-11
3.96282e-11
-6.46418e-11
2.14287e-10
-1.74646e-10
4.73511e-10
-2.59216e-10
7.94292e-10
-3.20763e-10
1.15507e-09
-3.6085e-10
1.53733e-09
-3.82313e-10
1.92507e-09
-3.87762e-10
2.30524e-09
-3.80106e-10
2.66651e-09
-3.61241e-10
2.9994e-09
-3.32891e-10
3.29605e-09
-2.96595e-10
3.54954e-09
-2.53489e-10
3.75431e-09
-2.0478e-10
3.90525e-09
-1.50985e-10
3.99821e-09
-9.29711e-11
4.0295e-09
-3.13077e-11
3.99602e-09
3.34573e-11
3.8953e-09
1.00702e-10
3.72496e-09
1.7029e-10
3.48316e-09
2.41784e-10
3.16841e-09
3.14763e-10
2.77938e-09
3.89057e-10
2.31503e-09
4.64306e-10
1.77461e-09
5.40366e-10
1.15755e-09
6.17123e-10
4.63321e-10
6.94222e-10
-3.08355e-10
7.71707e-10
-1.15757e-09
8.49242e-10
-2.08424e-09
9.26667e-10
-3.08818e-09
1.00399e-09
-4.1691e-09
1.08094e-09
-5.32655e-09
1.15749e-09
-6.56025e-09
1.23372e-09
-7.86961e-09
1.30938e-09
-9.25386e-09
1.38428e-09
-1.07124e-08
1.45855e-09
-1.22444e-08
1.53201e-09
-1.38489e-08
1.60452e-09
-1.55251e-08
1.67623e-09
-1.72721e-08
1.74696e-09
-1.90887e-08
1.81654e-09
-2.09738e-08
1.88517e-09
-2.29266e-08
1.95275e-09
-2.49457e-08
2.01907e-09
-2.70299e-08
2.08426e-09
-2.91782e-08
2.14831e-09
-3.13893e-08
2.21102e-09
-3.36617e-08
2.27241e-09
-3.59942e-08
2.33255e-09
-3.83856e-08
2.39138e-09
-4.08343e-08
2.44877e-09
-4.3339e-08
2.50474e-09
-4.58985e-08
2.55941e-09
-4.85112e-08
2.61272e-09
-5.11757e-08
2.66451e-09
-5.38906e-08
2.71487e-09
-5.66544e-08
2.76383e-09
-5.94656e-08
2.81128e-09
-6.23228e-08
2.85713e-09
-6.52243e-08
2.9015e-09
-6.81688e-08
2.94443e-09
-7.11545e-08
2.98581e-09
-7.418e-08
3.02556e-09
-7.72438e-08
3.06373e-09
-8.03441e-08
3.1004e-09
-8.34795e-08
3.13544e-09
-8.66483e-08
3.16877e-09
-8.98489e-08
3.20053e-09
-9.30796e-08
3.2307e-09
-9.63387e-08
3.25912e-09
-9.96245e-08
3.28577e-09
-1.02935e-07
3.31079e-09
-1.06269e-07
3.33406e-09
-1.09625e-07
3.35548e-09
-1.13e-07
3.37512e-09
-1.16393e-07
3.39298e-09
-1.19802e-07
3.40899e-09
-1.23225e-07
3.42304e-09
-1.2666e-07
3.43515e-09
-1.30106e-07
3.44531e-09
-1.33559e-07
3.45347e-09
-1.37019e-07
3.45957e-09
-1.40482e-07
3.46344e-09
-1.43947e-07
3.46519e-09
-1.47412e-07
3.46477e-09
-1.50874e-07
3.462e-09
-1.54331e-07
3.45679e-09
-1.5778e-07
3.44924e-09
-1.61219e-07
3.43923e-09
-1.64646e-07
3.42669e-09
-1.68057e-07
3.41148e-09
-1.71451e-07
3.39356e-09
-1.74824e-07
3.3729e-09
-1.78173e-07
3.34937e-09
-1.81496e-07
3.3228e-09
-1.84789e-07
3.29319e-09
-1.8805e-07
3.26049e-09
-1.91274e-07
3.22454e-09
-1.9446e-07
3.18525e-09
-1.97602e-07
3.14249e-09
-2.00698e-07
3.09617e-09
-2.03745e-07
3.04622e-09
-2.06737e-07
2.99257e-09
-2.09672e-07
2.93503e-09
-2.12546e-07
2.87351e-09
-2.15354e-07
2.80796e-09
-2.18092e-07
2.73824e-09
-2.20756e-07
2.6643e-09
-2.23342e-07
2.58591e-09
-2.25845e-07
2.50304e-09
-2.28261e-07
2.41571e-09
-2.30584e-07
2.32366e-09
-2.32811e-07
2.22682e-09
-2.34936e-07
2.12512e-09
-2.36955e-07
2.01854e-09
-2.38862e-07
1.90699e-09
-2.40652e-07
1.79033e-09
-2.42321e-07
1.66845e-09
-2.43862e-07
1.54164e-09
-2.45272e-07
1.40961e-09
-2.46544e-07
1.2724e-09
-2.47674e-07
1.1298e-09
-2.48656e-07
9.82132e-10
-2.49485e-07
8.29238e-10
-2.50157e-07
6.71041e-10
-2.50664e-07
5.0785e-10
-2.51004e-07
3.3948e-10
1.66524e-10
-2.5117e-07
7.17939e-11
-4.67627e-11
3.4738e-10
-3.4031e-10
8.33683e-10
-6.60971e-10
1.50152e-09
-9.27111e-10
2.30718e-09
-1.12639e-09
3.20591e-09
-1.25948e-09
4.1549e-09
-1.33134e-09
5.1159e-09
-1.34884e-09
6.05482e-09
-1.31907e-09
6.94184e-09
-1.24837e-09
7.75134e-09
-1.14242e-09
8.46062e-09
-1.00588e-09
9.05035e-09
-8.43251e-10
9.50352e-09
-6.57869e-10
9.80556e-09
-4.52951e-10
9.9437e-09
-2.31138e-10
9.90702e-09
5.41245e-12
9.6861e-09
2.54458e-10
9.27261e-09
5.1425e-10
8.6597e-09
7.8327e-10
7.84136e-09
1.06003e-09
6.81266e-09
1.34354e-09
5.5694e-09
1.63237e-09
4.1081e-09
1.92562e-09
2.42599e-09
2.22257e-09
5.20894e-10
2.52214e-09
-1.60874e-09
2.82389e-09
-3.96403e-09
3.12701e-09
-6.54564e-09
3.43077e-09
-9.35366e-09
3.73474e-09
-1.2388e-08
4.03832e-09
-1.56482e-08
4.34106e-09
-1.91333e-08
4.64262e-09
-2.28422e-08
4.94263e-09
-2.67735e-08
5.24059e-09
-3.09255e-08
5.53626e-09
-3.52963e-08
5.82935e-09
-3.98836e-08
6.11938e-09
-4.46853e-08
6.40621e-09
-4.96988e-08
6.68974e-09
-5.49213e-08
6.96947e-09
-6.035e-08
7.24529e-09
-6.59819e-08
7.51716e-09
-7.18139e-08
7.78476e-09
-7.78427e-08
8.04787e-09
-8.40648e-08
8.30646e-09
-9.0477e-08
8.56041e-09
-9.70753e-08
8.80943e-09
-1.03856e-07
9.05337e-09
-1.10816e-07
9.29233e-09
-1.17951e-07
9.52615e-09
-1.25257e-07
9.75455e-09
-1.3273e-07
9.97757e-09
-1.40365e-07
1.01952e-08
-1.4816e-07
1.04073e-08
-1.56109e-07
1.06136e-08
-1.64208e-07
1.08142e-08
-1.72454e-07
1.10091e-08
-1.80841e-07
1.11982e-08
-1.89365e-07
1.13812e-08
-1.98021e-07
1.15582e-08
-2.06806e-07
1.17292e-08
-2.15715e-07
1.18941e-08
-2.24742e-07
1.20528e-08
-2.33884e-07
1.22053e-08
-2.43135e-07
1.23515e-08
-2.52491e-07
1.24913e-08
-2.61946e-07
1.26246e-08
-2.71497e-07
1.27514e-08
-2.81138e-07
1.28716e-08
-2.90864e-07
1.2985e-08
-3.0067e-07
1.30916e-08
-3.1055e-07
1.31914e-08
-3.20501e-07
1.32843e-08
-3.30515e-07
1.33699e-08
-3.40588e-07
1.34484e-08
-3.50715e-07
1.35195e-08
-3.60889e-07
1.35832e-08
-3.71105e-07
1.36391e-08
-3.81357e-07
1.36873e-08
-3.91639e-07
1.37276e-08
-4.01946e-07
1.37598e-08
-4.1227e-07
1.37836e-08
-4.22605e-07
1.37989e-08
-4.32946e-07
1.38055e-08
-4.43284e-07
1.38032e-08
-4.53614e-07
1.37918e-08
-4.63928e-07
1.37708e-08
-4.74219e-07
1.37402e-08
-4.84479e-07
1.36997e-08
-4.94702e-07
1.3649e-08
-5.04878e-07
1.35878e-08
-5.15e-07
1.35157e-08
-5.2506e-07
1.34324e-08
-5.35048e-07
1.33377e-08
-5.44956e-07
1.32311e-08
-5.54775e-07
1.31123e-08
-5.64496e-07
1.29809e-08
-5.74108e-07
1.28366e-08
-5.83601e-07
1.2679e-08
-5.92967e-07
1.25076e-08
-6.02192e-07
1.23221e-08
-6.11268e-07
1.2122e-08
-6.20183e-07
1.19071e-08
-6.28925e-07
1.16768e-08
-6.37482e-07
1.14306e-08
-6.45842e-07
1.11685e-08
-6.53993e-07
1.08896e-08
-6.61923e-07
1.05938e-08
-6.69617e-07
1.02805e-08
-6.77064e-07
9.94947e-09
-6.84249e-07
9.6004e-09
-6.91158e-07
9.23262e-09
-6.97777e-07
8.84595e-09
-7.04092e-07
8.44017e-09
-7.10088e-07
8.01491e-09
-7.15751e-07
7.56984e-09
-7.21065e-07
7.1047e-09
-7.26016e-07
6.61916e-09
-7.30588e-07
6.11343e-09
-7.34765e-07
5.58701e-09
-7.38533e-07
5.04002e-09
-7.41875e-07
4.47218e-09
-7.44777e-07
3.88392e-09
-7.47223e-07
3.27507e-09
-7.49197e-07
2.6455e-09
-7.50685e-07
1.99591e-09
-7.51672e-07
1.32601e-09
6.37073e-10
-7.52142e-07
1.73047e-10
-2.19782e-10
6.61881e-10
-8.29162e-10
1.43159e-09
-1.43067e-09
2.43684e-09
-1.93241e-09
3.62133e-09
-2.31088e-09
4.92596e-09
-2.56416e-09
6.29284e-09
-2.69818e-09
7.66782e-09
-2.72373e-09
9.00146e-09
-2.65274e-09
1.02496e-08
-2.4964e-09
1.13726e-08
-2.26532e-09
1.23356e-08
-1.96892e-09
1.31078e-08
-1.61549e-09
1.36622e-08
-1.21226e-09
1.39751e-08
-7.65825e-10
1.40255e-08
-2.81654e-10
1.37955e-08
2.35397e-10
1.32692e-08
7.80721e-10
1.24328e-08
1.35062e-09
1.12745e-08
1.94153e-09
9.78411e-09
2.55051e-09
7.95285e-09
3.17475e-09
5.77341e-09
3.81173e-09
3.23987e-09
4.45928e-09
3.47008e-10
5.11539e-09
-2.90907e-09
5.77826e-09
-6.5314e-09
6.44629e-09
-1.05222e-08
7.11786e-09
-1.4883e-08
7.79161e-09
-1.96144e-08
8.46621e-09
-2.47166e-08
9.14047e-09
-3.0189e-08
9.81345e-09
-3.60305e-08
1.04842e-08
-4.22395e-08
1.11517e-08
-4.88142e-08
1.18152e-08
-5.57518e-08
1.24739e-08
-6.30496e-08
1.31271e-08
-7.07042e-08
1.37741e-08
-7.87122e-08
1.44142e-08
-8.70694e-08
1.50469e-08
-9.57717e-08
1.56717e-08
-1.04815e-07
1.62882e-08
-1.14193e-07
1.68957e-08
-1.23903e-07
1.74941e-08
-1.33937e-07
1.80828e-08
-1.44292e-07
1.86615e-08
-1.54962e-07
1.92298e-08
-1.6594e-07
1.97875e-08
-1.77221e-07
2.03341e-08
-1.88798e-07
2.08695e-08
-2.00665e-07
2.13935e-08
-2.12816e-07
2.19057e-08
-2.25245e-07
2.2406e-08
-2.37944e-07
2.28942e-08
-2.50906e-07
2.337e-08
-2.64126e-07
2.38331e-08
-2.77595e-07
2.42836e-08
-2.91307e-07
2.47211e-08
-3.05254e-07
2.51456e-08
-3.1943e-07
2.55567e-08
-3.33826e-07
2.59545e-08
-3.48436e-07
2.63388e-08
-3.63251e-07
2.67093e-08
-3.78264e-07
2.7066e-08
-3.93468e-07
2.74088e-08
-4.08853e-07
2.77373e-08
-4.24414e-07
2.80515e-08
-4.4014e-07
2.83512e-08
-4.56025e-07
2.86363e-08
-4.7206e-07
2.89065e-08
-4.88237e-07
2.91615e-08
-5.04547e-07
2.94013e-08
-5.20981e-07
2.96257e-08
-5.37531e-07
2.98343e-08
-5.54188e-07
3.00268e-08
-5.70943e-07
3.02031e-08
-5.87786e-07
3.03628e-08
-6.04708e-07
3.05058e-08
-6.21701e-07
3.06313e-08
-6.38753e-07
3.07394e-08
-6.55855e-07
3.08296e-08
-6.72996e-07
3.09014e-08
-6.90167e-07
3.09545e-08
-7.07357e-07
3.09884e-08
-7.24554e-07
3.10026e-08
-7.41747e-07
3.09967e-08
-7.58926e-07
3.09701e-08
-7.76077e-07
3.09222e-08
-7.93189e-07
3.08526e-08
-8.1025e-07
3.07605e-08
-8.27247e-07
3.06455e-08
-8.44166e-07
3.05067e-08
-8.60994e-07
3.03435e-08
-8.77716e-07
3.01552e-08
-8.9432e-07
2.9941e-08
-9.10789e-07
2.97e-08
-9.27108e-07
2.94316e-08
-9.43262e-07
2.91349e-08
-9.59234e-07
2.88091e-08
-9.75009e-07
2.84533e-08
-9.90568e-07
2.80667e-08
-1.00589e-06
2.76483e-08
-1.02097e-06
2.71972e-08
-1.03577e-06
2.67126e-08
-1.05029e-06
2.61935e-08
-1.0645e-06
2.5639e-08
-1.07838e-06
2.50482e-08
-1.09191e-06
2.44202e-08
-1.10507e-06
2.37541e-08
-1.11784e-06
2.30489e-08
-1.13019e-06
2.23039e-08
-1.14211e-06
2.15183e-08
-1.15357e-06
2.0691e-08
-1.16454e-06
1.98214e-08
-1.17501e-06
1.89087e-08
-1.18495e-06
1.79524e-08
-1.19433e-06
1.69519e-08
-1.20313e-06
1.59065e-08
-1.21133e-06
1.48156e-08
-1.2189e-06
1.36793e-08
-1.22581e-06
1.24968e-08
-1.23204e-06
1.12684e-08
-1.23756e-06
9.99344e-09
-1.24235e-06
8.67247e-09
-1.24638e-06
7.30569e-09
-1.24962e-06
5.89292e-09
-1.25206e-06
4.43523e-09
-1.25367e-06
2.93232e-09
1.38618e-09
-1.25442e-06
2.58162e-10
-4.77927e-10
9.26302e-10
-1.49734e-09
1.93144e-09
-2.43575e-09
3.20561e-09
-3.20665e-09
4.67911e-09
-3.78441e-09
6.28064e-09
-4.16569e-09
7.94115e-09
-4.35872e-09
9.59534e-09
-4.37796e-09
1.11822e-08
-4.23958e-09
1.26462e-08
-3.96038e-09
1.39368e-08
-3.55602e-09
1.50091e-08
-3.04108e-09
1.58222e-08
-2.42862e-09
1.63403e-08
-1.73037e-09
1.65314e-08
-9.56903e-10
1.63672e-08
-1.17419e-10
1.58229e-08
7.79695e-10
1.48764e-08
1.72719e-09
1.35086e-08
2.71836e-09
1.17029e-08
3.74728e-09
9.44477e-09
4.80876e-09
6.72155e-09
5.89789e-09
3.52287e-09
7.01043e-09
-1.60429e-10
8.14254e-09
-4.33556e-09
9.29054e-09
-9.00859e-09
1.04513e-08
-1.41843e-08
1.16219e-08
-1.98661e-08
1.27996e-08
-2.60565e-08
1.3982e-08
-3.27571e-08
1.51668e-08
-3.99684e-08
1.63518e-08
-4.76901e-08
1.75352e-08
-5.59212e-08
1.87152e-08
-6.46598e-08
1.98903e-08
-7.39035e-08
2.1059e-08
-8.36492e-08
2.22196e-08
-9.38932e-08
2.33711e-08
-1.04631e-07
2.45122e-08
-1.15859e-07
2.56418e-08
-1.27571e-07
2.67588e-08
-1.39761e-07
2.78623e-08
-1.52425e-07
2.89514e-08
-1.65554e-07
3.00253e-08
-1.79143e-07
3.10832e-08
-1.93185e-07
3.21243e-08
-2.07671e-07
3.31481e-08
-2.22595e-07
3.41539e-08
-2.37949e-07
3.51411e-08
-2.53724e-07
3.61092e-08
-2.69912e-07
3.70577e-08
-2.86505e-07
3.7986e-08
-3.03493e-07
3.88939e-08
-3.20868e-07
3.97808e-08
-3.3862e-07
4.06463e-08
-3.5674e-07
4.14902e-08
-3.75219e-07
4.23119e-08
-3.94047e-07
4.31112e-08
-4.13213e-07
4.38876e-08
-4.32708e-07
4.46409e-08
-4.52523e-07
4.53709e-08
-4.72645e-07
4.60773e-08
-4.93066e-07
4.67596e-08
-5.13775e-07
4.74177e-08
-5.3476e-07
4.80513e-08
-5.56011e-07
4.86602e-08
-5.77518e-07
4.92438e-08
-5.99268e-07
4.98021e-08
-6.21252e-07
5.03346e-08
-6.43457e-07
5.08411e-08
-6.65871e-07
5.13211e-08
-6.88484e-07
5.17744e-08
-7.11283e-07
5.22004e-08
-7.34256e-07
5.25989e-08
-7.57392e-07
5.29695e-08
-7.80676e-07
5.33115e-08
-8.04098e-07
5.36245e-08
-8.27643e-07
5.3908e-08
-8.51298e-07
5.41615e-08
-8.75051e-07
5.43842e-08
-8.98888e-07
5.45757e-08
-9.22793e-07
5.47352e-08
-9.46754e-07
5.4862e-08
-9.70755e-07
5.49556e-08
-9.94781e-07
5.50149e-08
-1.01882e-06
5.50391e-08
-1.04285e-06
5.50274e-08
-1.06686e-06
5.49789e-08
-1.09083e-06
5.48924e-08
-1.11474e-06
5.47672e-08
-1.13858e-06
5.46021e-08
-1.16233e-06
5.43959e-08
-1.18597e-06
5.41476e-08
-1.20949e-06
5.38557e-08
-1.23285e-06
5.3519e-08
-1.25605e-06
5.31362e-08
-1.27905e-06
5.2706e-08
-1.30185e-06
5.22268e-08
-1.32441e-06
5.16974e-08
-1.34672e-06
5.11162e-08
-1.36875e-06
5.04817e-08
-1.39047e-06
4.97924e-08
-1.41187e-06
4.90466e-08
-1.43291e-06
4.82429e-08
-1.45358e-06
4.73795e-08
-1.47384e-06
4.64549e-08
-1.49367e-06
4.54673e-08
-1.51304e-06
4.44156e-08
-1.53192e-06
4.32977e-08
-1.55027e-06
4.21123e-08
-1.56808e-06
4.08576e-08
-1.58531e-06
3.95323e-08
-1.60193e-06
3.81349e-08
-1.6179e-06
3.66639e-08
-1.6332e-06
3.51179e-08
-1.64778e-06
3.34957e-08
-1.66163e-06
3.17962e-08
-1.67469e-06
3.00182e-08
-1.68695e-06
2.81609e-08
-1.69836e-06
2.62233e-08
-1.70888e-06
2.4205e-08
-1.71849e-06
2.21053e-08
-1.72715e-06
1.99242e-08
-1.73481e-06
1.76612e-08
-1.74146e-06
1.53166e-08
-1.74704e-06
1.2891e-08
-1.75154e-06
1.03842e-08
-1.7549e-06
7.79802e-09
-1.7571e-06
5.1323e-09
2.38959e-09
-1.7581e-06
3.19737e-10
-7.97674e-10
1.12534e-09
-2.30297e-09
2.30976e-09
-3.62012e-09
3.78339e-09
-4.68027e-09
5.46109e-09
-5.46219e-09
7.26135e-09
-5.96586e-09
9.10557e-09
-6.20302e-09
1.09194e-08
-6.19178e-09
1.26333e-08
-5.95346e-09
1.41828e-08
-5.50978e-09
1.55086e-08
-4.88189e-09
1.65572e-08
-4.08956e-09
1.72797e-08
-3.15114e-09
1.76325e-08
-2.0832e-09
1.75763e-08
-9.0067e-10
1.7076e-08
3.82804e-10
1.61006e-08
1.75515e-09
1.46223e-08
3.20543e-09
1.26168e-08
4.72376e-09
1.00627e-08
6.30139e-09
6.94135e-09
7.9301e-09
3.23652e-09
9.60278e-09
-1.06582e-09
1.13128e-08
-5.97748e-09
1.30542e-08
-1.15083e-08
1.48214e-08
-1.76666e-08
1.66096e-08
-2.44589e-08
1.84142e-08
-3.18901e-08
2.02309e-08
-3.99641e-08
2.2056e-08
-4.86831e-08
2.38858e-08
-5.80484e-08
2.57172e-08
-6.80603e-08
2.7547e-08
-7.87179e-08
2.93728e-08
-9.00192e-08
3.11917e-08
-1.01962e-07
3.30014e-08
-1.14542e-07
3.47998e-08
-1.27755e-07
3.65847e-08
-1.41597e-07
3.83542e-08
-1.56062e-07
4.01066e-08
-1.71144e-07
4.18402e-08
-1.86835e-07
4.35535e-08
-2.03129e-07
4.52451e-08
-2.20017e-07
4.69136e-08
-2.37492e-07
4.85579e-08
-2.55544e-07
5.01767e-08
-2.74165e-07
5.17689e-08
-2.93344e-07
5.33336e-08
-3.13073e-07
5.48699e-08
-3.33341e-07
5.63769e-08
-3.54137e-07
5.78537e-08
-3.7545e-07
5.92996e-08
-3.9727e-07
6.07139e-08
-4.19586e-07
6.20959e-08
-4.42384e-07
6.34448e-08
-4.65654e-07
6.47603e-08
-4.89384e-07
6.60415e-08
-5.13561e-07
6.7288e-08
-5.38172e-07
6.84991e-08
-5.63206e-07
6.96744e-08
-5.88648e-07
7.08135e-08
-6.14487e-07
7.19157e-08
-6.40708e-07
7.29807e-08
-6.67298e-07
7.4008e-08
-6.94244e-07
7.49972e-08
-7.21531e-07
7.59477e-08
-7.49147e-07
7.6859e-08
-7.77075e-07
7.77308e-08
-8.05303e-07
7.85623e-08
-8.33815e-07
7.93532e-08
-8.62597e-07
8.01028e-08
-8.91633e-07
8.08106e-08
-9.20909e-07
8.14759e-08
-9.50408e-07
8.20981e-08
-9.80115e-07
8.26765e-08
-1.01001e-06
8.32104e-08
-1.04009e-06
8.36989e-08
-1.07032e-06
8.41411e-08
-1.1007e-06
8.45363e-08
-1.1312e-06
8.48834e-08
-1.1618e-06
8.51816e-08
-1.1925e-06
8.54297e-08
-1.22326e-06
8.56267e-08
-1.25408e-06
8.57714e-08
-1.28492e-06
8.58625e-08
-1.31578e-06
8.58988e-08
-1.34663e-06
8.58787e-08
-1.37746e-06
8.58009e-08
-1.40823e-06
8.56638e-08
-1.43893e-06
8.5466e-08
-1.46953e-06
8.52057e-08
-1.50002e-06
8.4881e-08
-1.53036e-06
8.44903e-08
-1.56053e-06
8.40315e-08
-1.59052e-06
8.35027e-08
-1.62028e-06
8.29017e-08
-1.6498e-06
8.22264e-08
-1.67905e-06
8.14747e-08
-1.708e-06
8.06444e-08
-1.73662e-06
7.97331e-08
-1.76487e-06
7.87386e-08
-1.79274e-06
7.76584e-08
-1.82018e-06
7.64901e-08
-1.84717e-06
7.52312e-08
-1.87367e-06
7.38792e-08
-1.89965e-06
7.24317e-08
-1.92507e-06
7.08861e-08
-1.94989e-06
6.92401e-08
-1.97408e-06
6.74911e-08
-1.99761e-06
6.56368e-08
-2.02043e-06
6.36746e-08
-2.0425e-06
6.16022e-08
-2.06378e-06
5.94174e-08
-2.08423e-06
5.71181e-08
-2.10382e-06
5.4702e-08
-2.12249e-06
5.21672e-08
-2.1402e-06
4.95121e-08
-2.15692e-06
4.67348e-08
-2.17259e-06
4.38342e-08
-2.18718e-06
4.08087e-08
-2.20063e-06
3.76575e-08
-2.21291e-06
3.438e-08
-2.22396e-06
3.09758e-08
-2.23374e-06
2.74445e-08
-2.24221e-06
2.37862e-08
-2.24932e-06
2.00019e-08
-2.25503e-06
1.60917e-08
-2.25929e-06
1.20579e-08
-2.26206e-06
7.90098e-09
3.62396e-09
-2.26329e-06
3.59951e-10
-1.15761e-09
1.25903e-09
-3.20208e-09
2.56432e-09
-4.92546e-09
4.16691e-09
-6.28282e-09
5.96793e-09
-7.26318e-09
7.87551e-09
-7.87343e-09
9.80276e-09
-8.13026e-09
1.16681e-08
-8.05698e-09
1.33944e-08
-7.67981e-09
1.49103e-08
-7.02572e-09
1.61498e-08
-6.12127e-09
1.70519e-08
-4.99164e-09
1.75613e-08
-3.66046e-09
1.76274e-08
-2.14932e-09
1.72048e-08
-4.78074e-10
1.62524e-08
1.33523e-09
1.47333e-08
3.27417e-09
1.26149e-08
5.32391e-09
9.86767e-09
7.47103e-09
6.46578e-09
9.70315e-09
2.38668e-09
1.20093e-08
-2.38966e-09
1.43791e-08
-7.88045e-09
1.68035e-08
-1.41004e-08
1.92741e-08
-2.1062e-08
2.17831e-08
-2.87758e-08
2.43234e-08
-3.72502e-08
2.68886e-08
-4.64919e-08
2.94726e-08
-5.65059e-08
3.20699e-08
-6.72958e-08
3.46756e-08
-7.88635e-08
3.72849e-08
-9.12099e-08
3.98935e-08
-1.04334e-07
4.24972e-08
-1.18235e-07
4.50927e-08
-1.3291e-07
4.76761e-08
-1.48355e-07
5.02445e-08
-1.64565e-07
5.27948e-08
-1.81535e-07
5.53241e-08
-1.99258e-07
5.783e-08
-2.17728e-07
6.031e-08
-2.36936e-07
6.27618e-08
-2.56874e-07
6.51833e-08
-2.77533e-07
6.75727e-08
-2.98904e-07
6.9928e-08
-3.20975e-07
7.22477e-08
-3.43736e-07
7.45299e-08
-3.67175e-07
7.67734e-08
-3.91282e-07
7.89768e-08
-4.16044e-07
8.11387e-08
-4.41448e-07
8.32578e-08
-4.67482e-07
8.53331e-08
-4.94132e-07
8.73636e-08
-5.21384e-07
8.93481e-08
-5.49225e-07
9.12857e-08
-5.7764e-07
9.31755e-08
-6.06615e-07
9.50165e-08
-6.36135e-07
9.68079e-08
-6.66184e-07
9.85488e-08
-6.96749e-07
1.00239e-07
-7.27812e-07
1.01876e-07
-7.59357e-07
1.03462e-07
-7.9137e-07
1.04993e-07
-8.23833e-07
1.06471e-07
-8.5673e-07
1.07894e-07
-8.90044e-07
1.09262e-07
-9.23758e-07
1.10573e-07
-9.57854e-07
1.11827e-07
-9.92316e-07
1.13024e-07
-1.02712e-06
1.14162e-07
-1.06226e-06
1.15241e-07
-1.09771e-06
1.16259e-07
-1.13345e-06
1.17217e-07
-1.16947e-06
1.18112e-07
-1.20573e-06
1.18944e-07
-1.24223e-06
1.19712e-07
-1.27895e-06
1.20414e-07
-1.31586e-06
1.2105e-07
-1.35294e-06
1.21618e-07
-1.39017e-06
1.22116e-07
-1.42753e-06
1.22544e-07
-1.465e-06
1.229e-07
-1.50256e-06
1.23181e-07
-1.54017e-06
1.23388e-07
-1.57783e-06
1.23517e-07
-1.6155e-06
1.23567e-07
-1.65315e-06
1.23535e-07
-1.69077e-06
1.2342e-07
-1.72833e-06
1.2322e-07
-1.7658e-06
1.22932e-07
-1.80314e-06
1.22554e-07
-1.84034e-06
1.22083e-07
-1.87737e-06
1.21516e-07
-1.91419e-06
1.20852e-07
-1.95077e-06
1.20086e-07
-1.98709e-06
1.19217e-07
-2.0231e-06
1.1824e-07
-2.05878e-06
1.17153e-07
-2.09409e-06
1.15953e-07
-2.12899e-06
1.14636e-07
-2.16345e-06
1.132e-07
-2.19744e-06
1.1164e-07
-2.2309e-06
1.09953e-07
-2.2638e-06
1.08136e-07
-2.29611e-06
1.06185e-07
-2.32777e-06
1.04096e-07
-2.35875e-06
1.01867e-07
-2.38901e-06
9.94927e-08
-2.41849e-06
9.69707e-08
-2.44715e-06
9.42973e-08
-2.47494e-06
9.1469e-08
-2.50182e-06
8.84824e-08
-2.52774e-06
8.53343e-08
-2.55264e-06
8.20217e-08
-2.57648e-06
7.85415e-08
-2.59921e-06
7.48911e-08
-2.62076e-06
7.10679e-08
-2.6411e-06
6.70696e-08
-2.66016e-06
6.28943e-08
-2.67789e-06
5.854e-08
-2.69424e-06
5.40055e-08
-2.70915e-06
4.929e-08
-2.72256e-06
4.43927e-08
-2.73443e-06
3.93135e-08
-2.7447e-06
3.40524e-08
-2.75331e-06
2.86107e-08
-2.7602e-06
2.29888e-08
-2.76534e-06
1.71897e-08
-2.76865e-06
1.12146e-08
5.06734e-09
-2.77009e-06
3.81892e-10
-1.53949e-09
1.33234e-09
-4.15251e-09
2.70146e-09
-6.29465e-09
4.3647e-09
-7.946e-09
6.21139e-09
-9.10996e-09
8.14037e-09
-9.8023e-09
1.00572e-08
-1.00472e-08
1.18738e-08
-9.87349e-09
1.35071e-08
-9.31315e-09
1.488e-08
-8.39856e-09
1.59204e-08
-7.16164e-09
1.65619e-08
-5.63311e-09
1.67432e-08
-3.84177e-09
1.64084e-08
-1.81453e-09
1.55064e-08
4.23923e-10
1.39908e-08
2.85071e-09
1.182e-08
5.44503e-09
8.95613e-09
8.18778e-09
5.36562e-09
1.10615e-08
1.0184e-09
1.40503e-08
-4.11206e-09
1.71397e-08
-1.00492e-08
2.03162e-08
-1.68133e-08
2.35677e-08
-2.44222e-08
2.68829e-08
-3.28909e-08
3.02517e-08
-4.2232e-08
3.36645e-08
-5.24561e-08
3.71126e-08
-6.35716e-08
4.0588e-08
-7.55848e-08
4.40832e-08
-8.85005e-08
4.75914e-08
-1.02322e-07
5.11061e-08
-1.1705e-07
5.46217e-08
-1.32685e-07
5.81325e-08
-1.49226e-07
6.16336e-08
-1.6667e-07
6.51201e-08
-1.85013e-07
6.85877e-08
-2.04251e-07
7.20322e-08
-2.24377e-07
7.54498e-08
-2.45384e-07
7.8837e-08
-2.67264e-07
8.21904e-08
-2.90009e-07
8.55069e-08
-3.13609e-07
8.87836e-08
-3.38055e-07
9.20178e-08
-3.63334e-07
9.52069e-08
-3.89435e-07
9.83487e-08
-4.16346e-07
1.01441e-07
-4.44053e-07
1.04481e-07
-4.72545e-07
1.07468e-07
-5.01805e-07
1.10399e-07
-5.31821e-07
1.13274e-07
-5.62577e-07
1.16089e-07
-5.94058e-07
1.18844e-07
-6.26247e-07
1.21538e-07
-6.5913e-07
1.24168e-07
-6.92688e-07
1.26734e-07
-7.26906e-07
1.29234e-07
-7.61765e-07
1.31667e-07
-7.97249e-07
1.34032e-07
-8.33339e-07
1.36329e-07
-8.70017e-07
1.38554e-07
-9.07264e-07
1.40709e-07
-9.45062e-07
1.42791e-07
-9.83391e-07
1.448e-07
-1.02223e-06
1.46735e-07
-1.06156e-06
1.48594e-07
-1.10137e-06
1.50378e-07
-1.14163e-06
1.52083e-07
-1.18231e-06
1.53711e-07
-1.22341e-06
1.55259e-07
-1.26489e-06
1.56726e-07
-1.30675e-06
1.58111e-07
-1.34894e-06
1.59413e-07
-1.39146e-06
1.6063e-07
-1.43428e-06
1.61761e-07
-1.47737e-06
1.62805e-07
-1.52072e-06
1.63759e-07
-1.56429e-06
1.64623e-07
-1.60806e-06
1.65394e-07
-1.65202e-06
1.66071e-07
-1.69613e-06
1.66651e-07
-1.74036e-06
1.67133e-07
-1.78469e-06
1.67514e-07
-1.8291e-06
1.67792e-07
-1.87354e-06
1.67964e-07
-1.91801e-06
1.68029e-07
-1.96245e-06
1.67982e-07
-2.00685e-06
1.67822e-07
-2.05118e-06
1.67546e-07
-2.0954e-06
1.67149e-07
-2.13947e-06
1.6663e-07
-2.18338e-06
1.65984e-07
-2.22707e-06
1.65208e-07
-2.27051e-06
1.64298e-07
-2.31368e-06
1.63251e-07
-2.35652e-06
1.62061e-07
-2.39901e-06
1.60726e-07
-2.4411e-06
1.59241e-07
-2.48275e-06
1.57602e-07
-2.52391e-06
1.55804e-07
-2.56456e-06
1.53842e-07
-2.60463e-06
1.51713e-07
-2.64409e-06
1.49411e-07
-2.68288e-06
1.46932e-07
-2.72097e-06
1.4427e-07
-2.75829e-06
1.41422e-07
-2.79481e-06
1.38382e-07
-2.83046e-06
1.35146e-07
-2.8652e-06
1.31708e-07
-2.89897e-06
1.28065e-07
-2.93171e-06
1.24212e-07
-2.96337e-06
1.20143e-07
-2.99389e-06
1.15855e-07
-3.02321e-06
1.11344e-07
-3.05128e-06
1.06606e-07
-3.07802e-06
1.01637e-07
-3.10339e-06
9.64329e-08
-3.12731e-06
9.09917e-08
-3.14973e-06
8.53105e-08
-3.17057e-06
7.93868e-08
-3.18979e-06
7.32189e-08
-3.2073e-06
6.68056e-08
-3.22306e-06
6.0146e-08
-3.23698e-06
5.32402e-08
-3.24902e-06
4.60879e-08
-3.2591e-06
3.8691e-08
-3.26716e-06
3.10503e-08
-3.27314e-06
2.31695e-08
-3.27698e-06
1.50509e-08
6.69891e-09
-3.27861e-06
3.88263e-10
-1.92777e-09
1.35222e-09
-5.11646e-09
2.73161e-09
-7.67395e-09
4.39079e-09
-9.60519e-09
6.20957e-09
-1.09287e-08
8.07889e-09
-1.16715e-08
9.89774e-09
-1.1866e-08
1.15722e-08
-1.1548e-08
1.30144e-08
-1.07553e-08
1.4142e-08
-9.52615e-09
1.48784e-08
-7.89803e-09
1.51522e-08
-5.90697e-09
1.48976e-08
-3.58713e-09
1.40537e-08
-9.70591e-10
1.25648e-08
1.91279e-09
1.038e-08
5.03548e-09
7.45312e-09
8.37196e-09
3.74207e-09
1.18988e-08
-7.90651e-10
1.55943e-08
-6.17904e-09
1.94387e-08
-1.24532e-08
2.34138e-08
-1.96397e-08
2.75028e-08
-2.77621e-08
3.16901e-08
-3.68409e-08
3.59617e-08
-4.68936e-08
4.03044e-08
-5.79352e-08
4.47061e-08
-6.99781e-08
4.91555e-08
-8.30325e-08
5.36424e-08
-9.71063e-08
5.8157e-08
-1.12206e-07
6.26906e-08
-1.28334e-07
6.7235e-08
-1.45495e-07
7.17822e-08
-1.63688e-07
7.63255e-08
-1.82912e-07
8.0858e-08
-2.03166e-07
8.53735e-08
-2.24444e-07
8.98664e-08
-2.46743e-07
9.43311e-08
-2.70056e-07
9.87626e-08
-2.94375e-07
1.03156e-07
-3.19692e-07
1.07508e-07
-3.45998e-07
1.11812e-07
-3.73281e-07
1.16067e-07
-4.01532e-07
1.20268e-07
-4.30736e-07
1.24412e-07
-4.60882e-07
1.28495e-07
-4.91956e-07
1.32515e-07
-5.23943e-07
1.36468e-07
-5.56829e-07
1.40353e-07
-5.90597e-07
1.44167e-07
-6.25231e-07
1.47908e-07
-6.60715e-07
1.51573e-07
-6.9703e-07
1.5516e-07
-7.3416e-07
1.58668e-07
-7.72086e-07
1.62094e-07
-8.10788e-07
1.65437e-07
-8.50249e-07
1.68694e-07
-8.90447e-07
1.71866e-07
-9.31363e-07
1.74949e-07
-9.72977e-07
1.77942e-07
-1.01527e-06
1.80844e-07
-1.05821e-06
1.83654e-07
-1.10179e-06
1.8637e-07
-1.14598e-06
1.88991e-07
-1.19076e-06
1.91515e-07
-1.23611e-06
1.93941e-07
-1.282e-06
1.96267e-07
-1.32841e-06
1.98493e-07
-1.37531e-06
2.00616e-07
-1.42269e-06
2.02636e-07
-1.47051e-06
2.0455e-07
-1.51876e-06
2.06358e-07
-1.56741e-06
2.08056e-07
-1.61642e-06
2.09644e-07
-1.66578e-06
2.1112e-07
-1.71545e-06
2.12481e-07
-1.76542e-06
2.13726e-07
-1.81565e-06
2.14852e-07
-1.86611e-06
2.15856e-07
-1.91678e-06
2.16737e-07
-1.96762e-06
2.17492e-07
-2.0186e-06
2.18118e-07
-2.0697e-06
2.18612e-07
-2.12088e-06
2.18972e-07
-2.17211e-06
2.19193e-07
-2.22336e-06
2.19273e-07
-2.27458e-06
2.19208e-07
-2.32575e-06
2.18994e-07
-2.37683e-06
2.18627e-07
-2.42779e-06
2.18104e-07
-2.47858e-06
2.17419e-07
-2.52916e-06
2.16569e-07
-2.5795e-06
2.15549e-07
-2.62956e-06
2.14354e-07
-2.67929e-06
2.12979e-07
-2.72864e-06
2.11418e-07
-2.77758e-06
2.09667e-07
-2.82606e-06
2.0772e-07
-2.87403e-06
2.05571e-07
-2.92144e-06
2.03214e-07
-2.96824e-06
2.00644e-07
-3.01439e-06
1.97855e-07
-3.05982e-06
1.94841e-07
-3.10448e-06
1.91595e-07
-3.14832e-06
1.88111e-07
-3.19128e-06
1.84384e-07
-3.23331e-06
1.80406e-07
-3.27433e-06
1.76173e-07
-3.3143e-06
1.71677e-07
-3.35315e-06
1.66913e-07
-3.39081e-06
1.61874e-07
-3.42723e-06
1.56556e-07
-3.46232e-06
1.50952e-07
-3.49604e-06
1.45057e-07
-3.5283e-06
1.38866e-07
-3.55903e-06
1.32374e-07
-3.58818e-06
1.25578e-07
-3.61566e-06
1.18472e-07
-3.6414e-06
1.11054e-07
-3.66534e-06
1.0332e-07
-3.68739e-06
9.52692e-08
-3.70748e-06
8.6899e-08
-3.72554e-06
7.82084e-08
-3.7415e-06
6.91977e-08
-3.75528e-06
5.98668e-08
-3.76681e-06
5.0218e-08
-3.77601e-06
4.02526e-08
-3.78281e-06
2.9975e-08
-3.78715e-06
1.93887e-08
8.49921e-09
-3.78895e-06
3.81509e-10
-2.30931e-09
1.32542e-09
-6.06037e-09
2.66624e-09
-9.01484e-09
4.26119e-09
-1.12001e-08
5.98309e-09
-1.26506e-08
7.71651e-09
-1.34049e-08
9.35501e-09
-1.35045e-08
1.08e-08
-1.29929e-08
1.1959e-08
-1.19143e-08
1.27457e-08
-1.03129e-08
1.30795e-08
-8.23179e-09
1.28851e-08
-5.71253e-09
1.20925e-08
-2.79454e-09
1.0637e-08
4.8492e-10
8.45875e-09
4.09097e-09
5.50308e-09
7.99119e-09
1.7197e-09
1.21553e-08
-2.93697e-09
1.65554e-08
-8.50827e-09
2.11656e-08
-1.50316e-08
2.5962e-08
-2.25402e-08
3.09224e-08
-3.1064e-08
3.60265e-08
-4.06292e-08
4.12553e-08
-5.12589e-08
4.65915e-08
-6.29732e-08
5.20187e-08
-7.57892e-08
5.75221e-08
-8.97214e-08
6.30877e-08
-1.04782e-07
6.87025e-08
-1.20979e-07
7.43548e-08
-1.38322e-07
8.00332e-08
-1.56814e-07
8.57275e-08
-1.7646e-07
9.14279e-08
-1.9726e-07
9.71257e-08
-2.19214e-07
1.02812e-07
-2.42321e-07
1.0848e-07
-2.66575e-07
1.14121e-07
-2.91973e-07
1.19729e-07
-3.18507e-07
1.25297e-07
-3.4617e-07
1.30819e-07
-3.74953e-07
1.36291e-07
-4.04846e-07
1.41705e-07
-4.35838e-07
1.47058e-07
-4.67915e-07
1.52346e-07
-5.01066e-07
1.57562e-07
-5.35275e-07
1.62704e-07
-5.70528e-07
1.67768e-07
-6.06809e-07
1.7275e-07
-6.44102e-07
1.77646e-07
-6.82388e-07
1.82454e-07
-7.21651e-07
1.87171e-07
-7.61871e-07
1.91793e-07
-8.03029e-07
1.96318e-07
-8.45105e-07
2.00744e-07
-8.88079e-07
2.05068e-07
-9.3193e-07
2.09287e-07
-9.76636e-07
2.134e-07
-1.02218e-06
2.17405e-07
-1.06853e-06
2.21299e-07
-1.11566e-06
2.2508e-07
-1.16356e-06
2.28746e-07
-1.21221e-06
2.32296e-07
-1.26157e-06
2.35728e-07
-1.31162e-06
2.3904e-07
-1.36233e-06
2.42231e-07
-1.41369e-06
2.45297e-07
-1.46566e-06
2.48238e-07
-1.51822e-06
2.51052e-07
-1.57134e-06
2.53736e-07
-1.62499e-06
2.56289e-07
-1.67915e-06
2.5871e-07
-1.73379e-06
2.60994e-07
-1.78887e-06
2.63141e-07
-1.84438e-06
2.65149e-07
-1.90027e-06
2.67014e-07
-1.95652e-06
2.68734e-07
-2.0131e-06
2.70306e-07
-2.06998e-06
2.71728e-07
-2.12712e-06
2.72996e-07
-2.18449e-06
2.74107e-07
-2.24205e-06
2.75059e-07
-2.29978e-06
2.75847e-07
-2.35764e-06
2.76468e-07
-2.41558e-06
2.76918e-07
-2.47358e-06
2.77192e-07
-2.5316e-06
2.77288e-07
-2.58959e-06
2.77199e-07
-2.64752e-06
2.76922e-07
-2.70534e-06
2.76451e-07
-2.76302e-06
2.75782e-07
-2.82051e-06
2.74908e-07
-2.87776e-06
2.73824e-07
-2.93474e-06
2.72525e-07
-2.99139e-06
2.71003e-07
-3.04766e-06
2.69254e-07
-3.10351e-06
2.6727e-07
-3.15889e-06
2.65044e-07
-3.21374e-06
2.6257e-07
-3.26801e-06
2.5984e-07
-3.32165e-06
2.56848e-07
-3.37459e-06
2.53586e-07
-3.42678e-06
2.50046e-07
-3.47816e-06
2.46221e-07
-3.52867e-06
2.42103e-07
-3.57824e-06
2.37685e-07
-3.62681e-06
2.32958e-07
-3.67432e-06
2.27916e-07
-3.7207e-06
2.22549e-07
-3.76587e-06
2.16851e-07
-3.80978e-06
2.10815e-07
-3.85233e-06
2.04431e-07
-3.89347e-06
1.97695e-07
-3.93312e-06
1.90597e-07
-3.97119e-06
1.83133e-07
-4.00762e-06
1.75295e-07
-4.04232e-06
1.67077e-07
-4.07522e-06
1.58475e-07
-4.10623e-06
1.49483e-07
-4.13528e-06
1.40097e-07
-4.16227e-06
1.30313e-07
-4.18713e-06
1.2013e-07
-4.20977e-06
1.09544e-07
-4.23012e-06
9.85541e-08
-4.24808e-06
8.71612e-08
-4.26358e-06
7.5365e-08
-4.27653e-06
6.31683e-08
-4.28685e-06
5.05733e-08
-4.29446e-06
3.7585e-08
-4.29928e-06
2.42084e-08
1.04502e-08
-4.30123e-06
3.63702e-10
-2.67295e-09
1.2581e-09
-6.9548e-09
2.51635e-09
-1.0273e-08
3.99191e-09
-1.26756e-08
5.55291e-09
-1.42116e-08
7.07917e-09
-1.49313e-08
8.4604e-09
-1.48857e-08
9.59363e-09
-1.41261e-08
1.03831e-08
-1.27038e-08
1.0739e-08
-1.06688e-08
1.05773e-08
-8.07014e-09
9.8196e-09
-4.95473e-09
8.39244e-09
-1.36735e-09
6.2277e-09
2.6496e-09
3.2624e-09