/*--------------------------------*- C++ -*----------------------------------*\
| =========                 |                                                 |
| \\      /  F ield         | OpenFOAM: The Open Source CFD Toolbox           |
|  \\    /   O peration     | Version:  2112                                  |
|   \\  /    A nd           | Website:  www.openfoam.com                      |
|    \\/     M anipulation  |                                                 |
\*---------------------------------------------------------------------------*/
FoamFile
{
    version     2.0;
    format      ascii;
    arch        "LSB;label=32;scalar=64";
    class       volVectorField;
    location    "6";
    object      U;
}
// * * * * * * * * * * * * * * * * * * * * * * * * * * * * * * * * * * * * * //

dimensions      [0 1 -1 0 0 0 0];

internalField   nonuniform List<vector> 
66564
(
(-6.39115e-08 1.02284e-07 0)
(-4.8347e-08 -1.75487e-08 0)
(4.09673e-07 -1.91095e-07 0)
(1.22052e-06 -3.13595e-07 0)
(2.32042e-06 -3.96872e-07 0)
(3.60475e-06 -4.4801e-07 0)
(5.00352e-06 -4.73244e-07 0)
(6.44843e-06 -4.79454e-07 0)
(7.88895e-06 -4.68632e-07 0)
(9.27812e-06 -4.46424e-07 0)
(1.05777e-05 -4.12468e-07 0)
(1.17564e-05 -3.71425e-07 0)
(1.27855e-05 -3.23886e-07 0)
(1.36441e-05 -2.70937e-07 0)
(1.43098e-05 -2.14195e-07 0)
(1.47674e-05 -1.52691e-07 0)
(1.50016e-05 -8.86451e-08 0)
(1.49994e-05 -2.26847e-08 0)
(1.47523e-05 4.55892e-08 0)
(1.4249e-05 1.14826e-07 0)
(1.34827e-05 1.85372e-07 0)
(1.24481e-05 2.56798e-07 0)
(1.11382e-05 3.27825e-07 0)
(9.55009e-06 3.9895e-07 0)
(7.68042e-06 4.70378e-07 0)
(5.52537e-06 5.41422e-07 0)
(3.0842e-06 6.12877e-07 0)
(3.55195e-07 6.84451e-07 0)
(-2.66312e-06 7.54449e-07 0)
(-5.96947e-06 8.23392e-07 0)
(-9.56374e-06 8.91469e-07 0)
(-1.34459e-05 9.5793e-07 0)
(-1.76137e-05 1.02338e-06 0)
(-2.20658e-05 1.08857e-06 0)
(-2.68012e-05 1.1526e-06 0)
(-3.18169e-05 1.21497e-06 0)
(-3.71098e-05 1.2767e-06 0)
(-4.26782e-05 1.33703e-06 0)
(-4.85189e-05 1.39529e-06 0)
(-5.46275e-05 1.45245e-06 0)
(-6.10013e-05 1.50811e-06 0)
(-6.76369e-05 1.56155e-06 0)
(-7.45296e-05 1.61383e-06 0)
(-8.16756e-05 1.66515e-06 0)
(-8.90713e-05 1.71462e-06 0)
(-9.67119e-05 1.76268e-06 0)
(-0.000104593 1.80978e-06 0)
(-0.00011271 1.8551e-06 0)
(-0.000121058 1.89845e-06 0)
(-0.000129632 1.94033e-06 0)
(-0.000138428 1.98072e-06 0)
(-0.00014744 2.01913e-06 0)
(-0.000156663 2.05573e-06 0)
(-0.000166093 2.09111e-06 0)
(-0.000175723 2.12525e-06 0)
(-0.000185549 2.15764e-06 0)
(-0.000195565 2.18843e-06 0)
(-0.000205766 2.21816e-06 0)
(-0.000216146 2.2465e-06 0)
(-0.000226701 2.27288e-06 0)
(-0.000237423 2.29772e-06 0)
(-0.000248308 2.32122e-06 0)
(-0.000259349 2.3431e-06 0)
(-0.000270542 2.3631e-06 0)
(-0.00028188 2.38169e-06 0)
(-0.000293357 2.39918e-06 0)
(-0.000304967 2.41524e-06 0)
(-0.000316705 2.42959e-06 0)
(-0.000328564 2.44264e-06 0)
(-0.000340539 2.45466e-06 0)
(-0.000352622 2.46518e-06 0)
(-0.000364808 2.47384e-06 0)
(-0.000377091 2.48112e-06 0)
(-0.000389463 2.48709e-06 0)
(-0.000401918 2.49145e-06 0)
(-0.00041445 2.4942e-06 0)
(-0.000427052 2.49567e-06 0)
(-0.000439717 2.49582e-06 0)
(-0.000452437 2.49437e-06 0)
(-0.000465207 2.49158e-06 0)
(-0.000478018 2.48739e-06 0)
(-0.000490863 2.48201e-06 0)
(-0.000503735 2.47508e-06 0)
(-0.000516625 2.46641e-06 0)
(-0.000529526 2.45617e-06 0)
(-0.000542429 2.44462e-06 0)
(-0.000555326 2.43154e-06 0)
(-0.000568209 2.41663e-06 0)
(-0.000581068 2.39993e-06 0)
(-0.000593894 2.38172e-06 0)
(-0.000606679 2.36217e-06 0)
(-0.000619411 2.34082e-06 0)
(-0.000632082 2.31759e-06 0)
(-0.000644682 2.2928e-06 0)
(-0.000657199 2.26645e-06 0)
(-0.000669623 2.23819e-06 0)
(-0.000681942 2.20802e-06 0)
(-0.000694146 2.17608e-06 0)
(-0.000706222 2.14233e-06 0)
(-0.000718157 2.10658e-06 0)
(-0.00072994 2.06862e-06 0)
(-0.000741558 2.02864e-06 0)
(-0.000752996 1.98675e-06 0)
(-0.000764241 1.94285e-06 0)
(-0.00077528 1.89667e-06 0)
(-0.000786097 1.84836e-06 0)
(-0.000796677 1.79798e-06 0)
(-0.000807006 1.7453e-06 0)
(-0.000817067 1.69044e-06 0)
(-0.000826845 1.63323e-06 0)
(-0.000836322 1.57384e-06 0)
(-0.000845483 1.51222e-06 0)
(-0.00085431 1.44801e-06 0)
(-0.000862785 1.38141e-06 0)
(-0.000870891 1.31246e-06 0)
(-0.000878609 1.24118e-06 0)
(-0.00088592 1.16748e-06 0)
(-0.000892808 1.09126e-06 0)
(-0.000899251 1.01248e-06 0)
(-0.000905231 9.317e-07 0)
(-0.00091073 8.4834e-07 0)
(-0.000915727 7.62845e-07 0)
(-0.000920203 6.74765e-07 0)
(-0.000924139 5.84865e-07 0)
(-0.000927515 4.92367e-07 0)
(-0.000930312 3.97725e-07 0)
(-0.000932511 3.01105e-07 0)
(-0.000934092 2.02391e-07 0)
(-0.000935038 1.02196e-07 0)
(6.09075e-08 3.77569e-08 0)
(6.03793e-07 -5.51588e-07 0)
(2.01313e-06 -1.26971e-06 0)
(4.18777e-06 -1.84236e-06 0)
(6.95494e-06 -2.25843e-06 0)
(1.0152e-05 -2.52514e-06 0)
(1.3607e-05 -2.66293e-06 0)
(1.71769e-05 -2.68823e-06 0)
(2.07229e-05 -2.62235e-06 0)
(2.41281e-05 -2.47827e-06 0)
(2.72914e-05 -2.26966e-06 0)
(3.01208e-05 -2.00752e-06 0)
(3.25435e-05 -1.69996e-06 0)
(3.4487e-05 -1.35686e-06 0)
(3.5898e-05 -9.81762e-07 0)
(3.67233e-05 -5.81425e-07 0)
(3.69185e-05 -1.60482e-07 0)
(3.64499e-05 2.78292e-07 0)
(3.52808e-05 7.29246e-07 0)
(3.33852e-05 1.19115e-06 0)
(3.07398e-05 1.6616e-06 0)
(2.73223e-05 2.13701e-06 0)
(2.31182e-05 2.61622e-06 0)
(1.81127e-05 3.09744e-06 0)
(1.2293e-05 3.57826e-06 0)
(5.65208e-06 4.05858e-06 0)
(-1.81819e-06 4.53698e-06 0)
(-1.01234e-05 5.01206e-06 0)
(-1.92651e-05 5.48289e-06 0)
(-2.92455e-05 5.94877e-06 0)
(-4.00649e-05 6.40807e-06 0)
(-5.17213e-05 6.86045e-06 0)
(-6.42128e-05 7.30628e-06 0)
(-7.75357e-05 7.74415e-06 0)
(-9.16847e-05 8.17378e-06 0)
(-0.000106654 8.59502e-06 0)
(-0.000122438 9.00733e-06 0)
(-0.000139028 9.40992e-06 0)
(-0.000156416 9.80304e-06 0)
(-0.000174593 1.01867e-05 0)
(-0.00019355 1.05597e-05 0)
(-0.000213275 1.09223e-05 0)
(-0.000233759 1.12751e-05 0)
(-0.000254989 1.16171e-05 0)
(-0.000276955 1.19481e-05 0)
(-0.000299643 1.22688e-05 0)
(-0.000323041 1.25789e-05 0)
(-0.000347135 1.28779e-05 0)
(-0.000371912 1.31658e-05 0)
(-0.000397359 1.34432e-05 0)
(-0.000423461 1.37098e-05 0)
(-0.000450204 1.3965e-05 0)
(-0.000477573 1.42094e-05 0)
(-0.000505552 1.44433e-05 0)
(-0.000534128 1.46664e-05 0)
(-0.000563283 1.48785e-05 0)
(-0.000593004 1.508e-05 0)
(-0.000623272 1.52711e-05 0)
(-0.000654073 1.54516e-05 0)
(-0.00068539 1.56213e-05 0)
(-0.000717207 1.57806e-05 0)
(-0.000749507 1.59299e-05 0)
(-0.000782272 1.60686e-05 0)
(-0.000815487 1.6197e-05 0)
(-0.000849134 1.63153e-05 0)
(-0.000883194 1.64237e-05 0)
(-0.000917652 1.65218e-05 0)
(-0.000952489 1.66098e-05 0)
(-0.000987687 1.6688e-05 0)
(-0.00102323 1.67564e-05 0)
(-0.00105909 1.68148e-05 0)
(-0.00109526 1.68633e-05 0)
(-0.00113172 1.69022e-05 0)
(-0.00116844 1.69313e-05 0)
(-0.00120541 1.69505e-05 0)
(-0.00124261 1.69599e-05 0)
(-0.00128002 1.69597e-05 0)
(-0.00131761 1.69498e-05 0)
(-0.00135537 1.69298e-05 0)
(-0.00139328 1.69e-05 0)
(-0.00143131 1.68605e-05 0)
(-0.00146943 1.6811e-05 0)
(-0.00150764 1.67516e-05 0)
(-0.0015459 1.66818e-05 0)
(-0.00158419 1.6602e-05 0)
(-0.00162248 1.6512e-05 0)
(-0.00166076 1.64116e-05 0)
(-0.00169899 1.63004e-05 0)
(-0.00173715 1.61787e-05 0)
(-0.00177521 1.60463e-05 0)
(-0.00181314 1.59031e-05 0)
(-0.00185092 1.57487e-05 0)
(-0.00188851 1.5583e-05 0)
(-0.00192589 1.54059e-05 0)
(-0.00196302 1.52171e-05 0)
(-0.00199986 1.50164e-05 0)
(-0.0020364 1.48037e-05 0)
(-0.00207259 1.45787e-05 0)
(-0.00210839 1.43413e-05 0)
(-0.00214378 1.40912e-05 0)
(-0.0021787 1.38283e-05 0)
(-0.00221314 1.35521e-05 0)
(-0.00224703 1.32625e-05 0)
(-0.00228035 1.29595e-05 0)
(-0.00231306 1.26427e-05 0)
(-0.0023451 1.23119e-05 0)
(-0.00237643 1.19669e-05 0)
(-0.00240702 1.16075e-05 0)
(-0.0024368 1.12337e-05 0)
(-0.00246574 1.08451e-05 0)
(-0.00249379 1.04415e-05 0)
(-0.00252089 1.00232e-05 0)
(-0.002547 9.58964e-06 0)
(-0.00257206 9.14077e-06 0)
(-0.00259602 8.67667e-06 0)
(-0.00261883 8.19732e-06 0)
(-0.00264043 7.70276e-06 0)
(-0.00266076 7.1928e-06 0)
(-0.00267978 6.66733e-06 0)
(-0.00269743 6.12716e-06 0)
(-0.00271364 5.57197e-06 0)
(-0.00272836 5.00206e-06 0)
(-0.00274154 4.41735e-06 0)
(-0.00275311 3.81863e-06 0)
(-0.00276303 3.20615e-06 0)
(-0.00277122 2.57973e-06 0)
(-0.00277764 1.9407e-06 0)
(-0.00278224 1.28868e-06 0)
(-0.00278495 6.25623e-07 0)
(1.98321e-07 -4.16419e-07 0)
(1.27606e-06 -1.98997e-06 0)
(3.61574e-06 -3.60783e-06 0)
(6.94295e-06 -4.94887e-06 0)
(1.10312e-05 -5.94162e-06 0)
(1.56664e-05 -6.59225e-06 0)
(2.06383e-05 -6.92189e-06 0)
(2.57334e-05 -6.96946e-06 0)
(3.07635e-05 -6.77271e-06 0)
(3.55567e-05 -6.36521e-06 0)
(3.99549e-05 -5.78075e-06 0)
(4.3827e-05 -5.04254e-06 0)
(4.70464e-05 -4.17847e-06 0)
(4.95121e-05 -3.20509e-06 0)
(5.1129e-05 -2.14171e-06 0)
(5.18136e-05 -1.00412e-06 0)
(5.14982e-05 1.98132e-07 0)
(5.01165e-05 1.44985e-06 0)
(4.76173e-05 2.74295e-06 0)
(4.39533e-05 4.06952e-06 0)
(3.90815e-05 5.41988e-06 0)
(3.29703e-05 6.78968e-06 0)
(2.55891e-05 8.17205e-06 0)
(1.69122e-05 9.56073e-06 0)
(6.92175e-06 1.09529e-05 0)
(-4.40044e-06 1.23432e-05 0)
(-1.70674e-05 1.3728e-05 0)
(-3.10877e-05 1.51048e-05 0)
(-4.64688e-05 1.64705e-05 0)
(-6.32146e-05 1.78215e-05 0)
(-8.13263e-05 1.91566e-05 0)
(-0.000100803 2.04733e-05 0)
(-0.000121641 2.17693e-05 0)
(-0.000143837 2.30442e-05 0)
(-0.000167383 2.42954e-05 0)
(-0.000192272 2.55219e-05 0)
(-0.000218492 2.67226e-05 0)
(-0.000246034 2.78966e-05 0)
(-0.000274883 2.90427e-05 0)
(-0.000305027 3.01605e-05 0)
(-0.000336449 3.12492e-05 0)
(-0.000369134 3.23081e-05 0)
(-0.000403066 3.33368e-05 0)
(-0.000438225 3.43351e-05 0)
(-0.000474592 3.53022e-05 0)
(-0.000512149 3.62379e-05 0)
(-0.000550874 3.71425e-05 0)
(-0.000590747 3.80153e-05 0)
(-0.000631746 3.8856e-05 0)
(-0.000673848 3.96652e-05 0)
(-0.00071703 4.04428e-05 0)
(-0.00076127 4.11882e-05 0)
(-0.000806543 4.19019e-05 0)
(-0.000852825 4.25842e-05 0)
(-0.000900091 4.32348e-05 0)
(-0.000948316 4.38535e-05 0)
(-0.000997474 4.4441e-05 0)
(-0.00104754 4.49973e-05 0)
(-0.00109848 4.55225e-05 0)
(-0.00115028 4.60166e-05 0)
(-0.00120291 4.648e-05 0)
(-0.00125633 4.69131e-05 0)
(-0.00131053 4.73157e-05 0)
(-0.00136547 4.7688e-05 0)
(-0.00142113 4.80305e-05 0)
(-0.00147747 4.83434e-05 0)
(-0.00153447 4.86265e-05 0)
(-0.00159209 4.88799e-05 0)
(-0.00165032 4.91042e-05 0)
(-0.00170911 4.92994e-05 0)
(-0.00176844 4.94653e-05 0)
(-0.00182827 4.96021e-05 0)
(-0.00188858 4.97103e-05 0)
(-0.00194934 4.97897e-05 0)
(-0.0020105 4.984e-05 0)
(-0.00207204 4.98615e-05 0)
(-0.00213392 4.98544e-05 0)
(-0.00219611 4.98185e-05 0)
(-0.00225858 4.97532e-05 0)
(-0.00232129 4.96593e-05 0)
(-0.00238419 4.95361e-05 0)
(-0.00244727 4.93837e-05 0)
(-0.00251047 4.92019e-05 0)
(-0.00257375 4.89901e-05 0)
(-0.00263709 4.87484e-05 0)
(-0.00270043 4.84765e-05 0)
(-0.00276374 4.81741e-05 0)
(-0.00282698 4.78407e-05 0)
(-0.00289009 4.74758e-05 0)
(-0.00295303 4.70794e-05 0)
(-0.00301576 4.66513e-05 0)
(-0.00307824 4.61905e-05 0)
(-0.0031404 4.56963e-05 0)
(-0.0032022 4.51688e-05 0)
(-0.00326358 4.46073e-05 0)
(-0.0033245 4.40109e-05 0)
(-0.0033849 4.33791e-05 0)
(-0.00344471 4.27115e-05 0)
(-0.00350389 4.20076e-05 0)
(-0.00356237 4.12667e-05 0)
(-0.00362009 4.0488e-05 0)
(-0.00367698 3.96709e-05 0)
(-0.00373299 3.8815e-05 0)
(-0.00378803 3.79197e-05 0)
(-0.00384205 3.69841e-05 0)
(-0.00389496 3.60078e-05 0)
(-0.00394671 3.49906e-05 0)
(-0.0039972 3.39315e-05 0)
(-0.00404638 3.28301e-05 0)
(-0.00409414 3.16859e-05 0)
(-0.00414043 3.04987e-05 0)
(-0.00418515 2.92684e-05 0)
(-0.00422822 2.79938e-05 0)
(-0.00426955 2.66751e-05 0)
(-0.00430906 2.53124e-05 0)
(-0.00434666 2.39056e-05 0)
(-0.00438226 2.24545e-05 0)
(-0.00441577 2.09592e-05 0)
(-0.00444709 1.94196e-05 0)
(-0.00447614 1.78371e-05 0)
(-0.00450282 1.62112e-05 0)
(-0.00452703 1.45429e-05 0)
(-0.00454869 1.28324e-05 0)
(-0.0045677 1.10815e-05 0)
(-0.00458396 9.29073e-06 0)
(-0.00459738 7.4608e-06 0)
(-0.00460787 5.59388e-06 0)
(-0.00461534 3.69036e-06 0)
(-0.0046197 1.754e-06 0)
(3.13621e-07 -1.24695e-06 0)
(1.84116e-06 -4.17495e-06 0)
(4.94846e-06 -6.9392e-06 0)
(9.20486e-06 -9.20598e-06 0)
(1.4304e-05 -1.08876e-05 0)
(2.00001e-05 -1.19773e-05 0)
(2.60356e-05 -1.25107e-05 0)
(3.21639e-05 -1.25408e-05 0)
(3.81536e-05 -1.21248e-05 0)
(4.37875e-05 -1.13224e-05 0)
(4.88771e-05 -1.01821e-05 0)
(5.32419e-05 -8.75538e-06 0)
(5.67292e-05 -7.08041e-06 0)
(5.91972e-05 -5.1949e-06 0)
(6.05208e-05 -3.13316e-06 0)
(6.05937e-05 -9.19796e-07 0)
(5.9315e-05 1.41747e-06 0)
(5.66008e-05 3.85829e-06 0)
(5.2377e-05 6.38456e-06 0)
(4.65756e-05 8.9768e-06 0)
(3.91421e-05 1.16224e-05 0)
(3.00267e-05 1.43076e-05 0)
(1.9186e-05 1.70199e-05 0)
(6.58595e-06 1.97503e-05 0)
(-7.80427e-06 2.24892e-05 0)
(-2.4009e-05 2.5227e-05 0)
(-4.2047e-05 2.79577e-05 0)
(-6.19336e-05 3.06741e-05 0)
(-8.36801e-05 3.33699e-05 0)
(-0.000107294 3.60406e-05 0)
(-0.000132778 3.86808e-05 0)
(-0.000160133 4.12867e-05 0)
(-0.000189357 4.38545e-05 0)
(-0.000220444 4.63806e-05 0)
(-0.000253386 4.88621e-05 0)
(-0.000288174 5.1296e-05 0)
(-0.000324794 5.36803e-05 0)
(-0.000363233 5.60124e-05 0)
(-0.000403473 5.82907e-05 0)
(-0.000445498 6.05137e-05 0)
(-0.000489286 6.26798e-05 0)
(-0.000534818 6.47877e-05 0)
(-0.000582069 6.68366e-05 0)
(-0.000631017 6.88255e-05 0)
(-0.000681636 7.07532e-05 0)
(-0.000733898 7.26194e-05 0)
(-0.000787778 7.44239e-05 0)
(-0.000843246 7.61655e-05 0)
(-0.000900273 7.78444e-05 0)
(-0.000958828 7.94608e-05 0)
(-0.00101888 8.1014e-05 0)
(-0.0010804 8.25041e-05 0)
(-0.00114335 8.39314e-05 0)
(-0.0012077 8.52959e-05 0)
(-0.00127342 8.65973e-05 0)
(-0.00134047 8.7836e-05 0)
(-0.00140881 8.90122e-05 0)
(-0.00147841 9.01261e-05 0)
(-0.00154924 9.11778e-05 0)
(-0.00162125 9.21679e-05 0)
(-0.00169441 9.30969e-05 0)
(-0.00176868 9.39649e-05 0)
(-0.00184403 9.4772e-05 0)
(-0.00192041 9.5519e-05 0)
(-0.00199778 9.62063e-05 0)
(-0.00207611 9.68337e-05 0)
(-0.00215536 9.74016e-05 0)
(-0.00223547 9.79108e-05 0)
(-0.00231642 9.8361e-05 0)
(-0.00239816 9.87526e-05 0)
(-0.00248065 9.90857e-05 0)
(-0.00256384 9.93607e-05 0)
(-0.00264769 9.9578e-05 0)
(-0.00273216 9.97374e-05 0)
(-0.00281719 9.98388e-05 0)
(-0.00290276 9.98821e-05 0)
(-0.00298879 9.98677e-05 0)
(-0.00307526 9.97954e-05 0)
(-0.00316211 9.96644e-05 0)
(-0.00324929 9.94752e-05 0)
(-0.00333675 9.92275e-05 0)
(-0.00342444 9.89207e-05 0)
(-0.0035123 9.85546e-05 0)
(-0.00360029 9.81286e-05 0)
(-0.00368834 9.76426e-05 0)
(-0.00377639 9.70955e-05 0)
(-0.0038644 9.6487e-05 0)
(-0.0039523 9.58163e-05 0)
(-0.00404002 9.50831e-05 0)
(-0.00412751 9.42859e-05 0)
(-0.0042147 9.34243e-05 0)
(-0.00430152 9.24974e-05 0)
(-0.0043879 9.1504e-05 0)
(-0.00447378 9.0443e-05 0)
(-0.00455908 8.93135e-05 0)
(-0.00464372 8.81142e-05 0)
(-0.00472763 8.68443e-05 0)
(-0.00481073 8.55024e-05 0)
(-0.00489294 8.40873e-05 0)
(-0.00497416 8.25981e-05 0)
(-0.00505433 8.10335e-05 0)
(-0.00513334 7.93921e-05 0)
(-0.0052111 7.76727e-05 0)
(-0.00528753 7.58741e-05 0)
(-0.00536252 7.39953e-05 0)
(-0.00543597 7.20349e-05 0)
(-0.00550779 6.99925e-05 0)
(-0.00557786 6.78663e-05 0)
(-0.00564609 6.56557e-05 0)
(-0.00571236 6.33598e-05 0)
(-0.00577656 6.09778e-05 0)
(-0.00583858 5.85092e-05 0)
(-0.0058983 5.59529e-05 0)
(-0.0059556 5.33087e-05 0)
(-0.00601036 5.05766e-05 0)
(-0.00606247 4.77561e-05 0)
(-0.00611178 4.48474e-05 0)
(-0.00615819 4.1851e-05 0)
(-0.00620156 3.87667e-05 0)
(-0.00624176 3.5596e-05 0)
(-0.00627867 3.23394e-05 0)
(-0.00631215 2.89983e-05 0)
(-0.00634207 2.55738e-05 0)
(-0.00636832 2.2068e-05 0)
(-0.00639074 1.84834e-05 0)
(-0.00640923 1.4821e-05 0)
(-0.00642364 1.10854e-05 0)
(-0.00643385 7.27729e-06 0)
(-0.00643975 3.40246e-06 0)
(3.95521e-07 -2.33727e-06 0)
(2.25397e-06 -6.94127e-06 0)
(5.94053e-06 -1.10257e-05 0)
(1.08853e-05 -1.43069e-05 0)
(1.6705e-05 -1.67071e-05 0)
(2.31122e-05 -1.82305e-05 0)
(2.9821e-05 -1.89255e-05 0)
(3.65509e-05 -1.8862e-05 0)
(4.30364e-05 -1.81207e-05 0)
(4.90381e-05 -1.6778e-05 0)
(5.43249e-05 -1.49118e-05 0)
(5.86957e-05 -1.25888e-05 0)
(6.19632e-05 -9.87138e-06 0)
(6.39566e-05 -6.81654e-06 0)
(6.45294e-05 -3.47102e-06 0)
(6.35432e-05 1.18997e-07 0)
(6.08787e-05 3.91525e-06 0)
(5.64304e-05 7.88487e-06 0)
(5.01016e-05 1.19952e-05 0)
(4.18107e-05 1.62204e-05 0)
(3.14846e-05 2.05366e-05 0)
(1.90594e-05 2.49208e-05 0)
(4.48112e-06 2.93547e-05 0)
(-1.22973e-05 3.38221e-05 0)
(-3.1316e-05 3.83058e-05 0)
(-5.26076e-05 4.2794e-05 0)
(-7.61981e-05 4.72734e-05 0)
(-0.000102109 5.17327e-05 0)
(-0.000130356 5.61621e-05 0)
(-0.00016095 6.05529e-05 0)
(-0.000193899 6.48967e-05 0)
(-0.000229203 6.91862e-05 0)
(-0.000266862 7.34164e-05 0)
(-0.000306871 7.75796e-05 0)
(-0.000349221 8.16721e-05 0)
(-0.000393902 8.56886e-05 0)
(-0.0004409 8.9625e-05 0)
(-0.000490196 9.34776e-05 0)
(-0.000541773 9.7243e-05 0)
(-0.000595608 0.000100918 0)
(-0.000651678 0.000104502 0)
(-0.000709957 0.00010799 0)
(-0.000770417 0.000111382 0)
(-0.000833029 0.000114676 0)
(-0.000897762 0.00011787 0)
(-0.000964583 0.000120964 0)
(-0.00103346 0.000123956 0)
(-0.00110435 0.000126845 0)
(-0.00117723 0.000129632 0)
(-0.00125205 0.000132315 0)
(-0.00132877 0.000134894 0)
(-0.00140737 0.00013737 0)
(-0.00148778 0.000139741 0)
(-0.00156998 0.000142009 0)
(-0.00165392 0.000144173 0)
(-0.00173956 0.000146234 0)
(-0.00182684 0.000148191 0)
(-0.00191574 0.000150045 0)
(-0.00200619 0.000151796 0)
(-0.00209816 0.000153445 0)
(-0.0021916 0.000154992 0)
(-0.00228645 0.000156438 0)
(-0.00238268 0.000157783 0)
(-0.00248022 0.000159028 0)
(-0.00257904 0.000160174 0)
(-0.00267907 0.00016122 0)
(-0.00278027 0.000162167 0)
(-0.00288259 0.000163017 0)
(-0.00298597 0.000163768 0)
(-0.00309036 0.000164422 0)
(-0.00319571 0.000164979 0)
(-0.00330195 0.000165439 0)
(-0.00340904 0.000165802 0)
(-0.00351692 0.000166068 0)
(-0.00362552 0.000166237 0)
(-0.0037348 0.00016631 0)
(-0.00384468 0.000166287 0)
(-0.00395511 0.000166166 0)
(-0.00406602 0.000165948 0)
(-0.00417736 0.000165632 0)
(-0.00428905 0.000165219 0)
(-0.00440103 0.000164706 0)
(-0.00451323 0.000164095 0)
(-0.00462559 0.000163384 0)
(-0.00473802 0.000162572 0)
(-0.00485046 0.000161658 0)
(-0.00496284 0.000160642 0)
(-0.00507506 0.000159521 0)
(-0.00518707 0.000158296 0)
(-0.00529877 0.000156965 0)
(-0.00541008 0.000155525 0)
(-0.00552091 0.000153977 0)
(-0.00563119 0.000152317 0)
(-0.0057408 0.000150545 0)
(-0.00584968 0.000148659 0)
(-0.0059577 0.000146656 0)
(-0.00606479 0.000144535 0)
(-0.00617083 0.000142294 0)
(-0.00627572 0.000139931 0)
(-0.00637936 0.000137444 0)
(-0.00648163 0.000134832 0)
(-0.00658242 0.000132091 0)
(-0.00668161 0.000129221 0)
(-0.00677908 0.00012622 0)
(-0.00687471 0.000123084 0)
(-0.00696837 0.000119813 0)
(-0.00705993 0.000116405 0)
(-0.00714926 0.000112858 0)
(-0.00723622 0.000109171 0)
(-0.00732068 0.000105343 0)
(-0.00740248 0.00010137 0)
(-0.00748149 9.72542e-05 0)
(-0.00755756 9.2993e-05 0)
(-0.00763054 8.85857e-05 0)
(-0.00770026 8.40322e-05 0)
(-0.00776659 7.93324e-05 0)
(-0.00782935 7.44863e-05 0)
(-0.00788839 6.94946e-05 0)
(-0.00794355 6.43575e-05 0)
(-0.00799467 5.90767e-05 0)
(-0.00804157 5.36541e-05 0)
(-0.0080841 4.80916e-05 0)
(-0.00812209 4.23911e-05 0)
(-0.00815538 3.65556e-05 0)
(-0.0081838 3.05898e-05 0)
(-0.00820718 2.44958e-05 0)
(-0.00822537 1.828e-05 0)
(-0.00823821 1.1945e-05 0)
(-0.00824553 5.49882e-06 0)
(4.45976e-07 -3.61642e-06 0)
(2.52196e-06 -1.01355e-05 0)
(6.59251e-06 -1.56626e-05 0)
(1.19819e-05 -2.00042e-05 0)
(1.82376e-05 -2.31162e-05 0)
(2.50369e-05 -2.5028e-05 0)
(3.20617e-05 -2.58076e-05 0)
(3.90038e-05 -2.55486e-05 0)
(4.55795e-05 -2.4349e-05 0)
(5.15143e-05 -2.2313e-05 0)
(5.65626e-05 -1.95367e-05 0)
(6.04943e-05 -1.61112e-05 0)
(6.30968e-05 -1.21222e-05 0)
(6.41813e-05 -7.64269e-06 0)
(6.35717e-05 -2.74232e-06 0)
(6.11125e-05 2.51716e-06 0)
(5.66636e-05 8.08276e-06 0)
(5.00975e-05 1.39038e-05 0)
(4.13029e-05 1.9937e-05 0)
(3.01804e-05 2.61446e-05 0)
(1.66412e-05 3.24895e-05 0)
(6.0871e-07 3.89415e-05 0)
(-1.7983e-05 4.54724e-05 0)
(-3.91932e-05 5.20561e-05 0)
(-6.30708e-05 5.86704e-05 0)
(-8.96562e-05 6.52953e-05 0)
(-0.000118985 7.19119e-05 0)
(-0.000151084 7.85036e-05 0)
(-0.000185973 8.50561e-05 0)
(-0.00022367 9.15548e-05 0)
(-0.000264183 9.79888e-05 0)
(-0.000307517 0.000104347 0)
(-0.000353673 0.000110618 0)
(-0.000402647 0.000116795 0)
(-0.00045443 0.00012287 0)
(-0.000509012 0.000128835 0)
(-0.000566377 0.000134683 0)
(-0.000626505 0.00014041 0)
(-0.000689377 0.00014601 0)
(-0.000754966 0.000151479 0)
(-0.000823247 0.000156812 0)
(-0.000894189 0.000162007 0)
(-0.00096776 0.00016706 0)
(-0.00104393 0.000171968 0)
(-0.00112265 0.00017673 0)
(-0.0012039 0.000181344 0)
(-0.00128762 0.000185807 0)
(-0.00137379 0.000190119 0)
(-0.00146235 0.000194279 0)
(-0.00155326 0.000198286 0)
(-0.00164648 0.000202139 0)
(-0.00174195 0.000205838 0)
(-0.00183963 0.000209383 0)
(-0.00193947 0.000212773 0)
(-0.00204142 0.000216009 0)
(-0.00214542 0.000219091 0)
(-0.00225143 0.000222019 0)
(-0.00235938 0.000224794 0)
(-0.00246922 0.000227415 0)
(-0.0025809 0.000229884 0)
(-0.00269436 0.000232201 0)
(-0.00280954 0.000234367 0)
(-0.00292638 0.000236383 0)
(-0.00304483 0.000238249 0)
(-0.00316482 0.000239966 0)
(-0.00328628 0.000241534 0)
(-0.00340917 0.000242955 0)
(-0.00353341 0.000244228 0)
(-0.00365894 0.000245355 0)
(-0.00378569 0.000246336 0)
(-0.00391361 0.000247171 0)
(-0.00404262 0.00024786 0)
(-0.00417265 0.000248404 0)
(-0.00430364 0.000248804 0)
(-0.00443551 0.000249058 0)
(-0.00456819 0.000249167 0)
(-0.00470161 0.00024913 0)
(-0.00483569 0.000248948 0)
(-0.00497036 0.00024862 0)
(-0.00510554 0.000248145 0)
(-0.00524116 0.000247523 0)
(-0.00537712 0.000246752 0)
(-0.00551334 0.000245833 0)
(-0.00564975 0.000244763 0)
(-0.00578625 0.000243543 0)
(-0.00592275 0.000242169 0)
(-0.00605917 0.000240641 0)
(-0.00619541 0.000238956 0)
(-0.00633137 0.000237114 0)
(-0.00646695 0.000235112 0)
(-0.00660205 0.000232948 0)
(-0.00673657 0.00023062 0)
(-0.0068704 0.000228126 0)
(-0.00700343 0.000225462 0)
(-0.00713555 0.000222626 0)
(-0.00726663 0.000219616 0)
(-0.00739656 0.000216429 0)
(-0.00752521 0.000213062 0)
(-0.00765246 0.000209512 0)
(-0.00777818 0.000205776 0)
(-0.00790222 0.000201851 0)
(-0.00802446 0.000197736 0)
(-0.00814474 0.000193425 0)
(-0.00826294 0.000188918 0)
(-0.00837888 0.00018421 0)
(-0.00849242 0.0001793 0)
(-0.00860341 0.000174184 0)
(-0.00871168 0.000168861 0)
(-0.00881706 0.000163328 0)
(-0.00891939 0.000157583 0)
(-0.0090185 0.000151624 0)
(-0.0091142 0.00014545 0)
(-0.00920633 0.000139059 0)
(-0.00929469 0.00013245 0)
(-0.0093791 0.000125623 0)
(-0.00945937 0.000118577 0)
(-0.00953531 0.000111313 0)
(-0.00960674 0.000103832 0)
(-0.00967344 9.6134e-05 0)
(-0.00973524 8.82221e-05 0)
(-0.00979191 8.00984e-05 0)
(-0.00984328 7.17662e-05 0)
(-0.00988914 6.32291e-05 0)
(-0.00992929 5.4491e-05 0)
(-0.00996353 4.55583e-05 0)
(-0.00999167 3.64351e-05 0)
(-0.0100135 2.71303e-05 0)
(-0.0100288 1.76493e-05 0)
(-0.0100375 8.00183e-06 0)
(4.72837e-07 -5.01172e-06 0)
(2.66186e-06 -1.35953e-05 0)
(6.93036e-06 -2.06381e-05 0)
(1.25282e-05 -2.60468e-05 0)
(1.89523e-05 -2.98306e-05 0)
(2.58431e-05 -3.20546e-05 0)
(3.28549e-05 -3.28175e-05 0)
(3.96604e-05 -3.22328e-05 0)
(4.5948e-05 -3.04286e-05 0)
(5.14319e-05 -2.75279e-05 0)
(5.58418e-05 -2.36512e-05 0)
(5.89271e-05 -1.89147e-05 0)
(6.04607e-05 -1.34218e-05 0)
(6.02298e-05 -7.27075e-06 0)
(5.80415e-05 -5.49733e-07 0)
(5.37217e-05 6.66318e-06 0)
(4.71107e-05 1.42943e-05 0)
(3.80656e-05 2.22789e-05 0)
(2.64594e-05 3.05599e-05 0)
(1.21763e-05 3.90828e-05 0)
(-4.8855e-06 4.78015e-05 0)
(-2.48145e-05 5.66732e-05 0)
(-4.76912e-05 6.56595e-05 0)
(-7.3583e-05 7.47248e-05 0)
(-0.000102548 8.38392e-05 0)
(-0.000134638 9.29732e-05 0)
(-0.000169893 0.000102102 0)
(-0.000208348 0.000111202 0)
(-0.000250028 0.000120253 0)
(-0.000294954 0.000129236 0)
(-0.000343141 0.000138134 0)
(-0.000394595 0.000146931 0)
(-0.000449319 0.000155614 0)
(-0.000507311 0.000164171 0)
(-0.000568564 0.000172589 0)
(-0.000633066 0.000180859 0)
(-0.0007008 0.000188972 0)
(-0.000771748 0.000196919 0)
(-0.000845886 0.000204694 0)
(-0.000923187 0.000212289 0)
(-0.00100362 0.0002197 0)
(-0.00108715 0.000226921 0)
(-0.00117375 0.000233947 0)
(-0.00126338 0.000240774 0)
(-0.00135599 0.000247401 0)
(-0.00145154 0.000253823 0)
(-0.00154998 0.000260038 0)
(-0.00165128 0.000266044 0)
(-0.00175537 0.00027184 0)
(-0.00186221 0.000277424 0)
(-0.00197175 0.000282796 0)
(-0.00208393 0.000287955 0)
(-0.00219869 0.000292899 0)
(-0.00231597 0.00029763 0)
(-0.00243573 0.000302146 0)
(-0.00255789 0.000306449 0)
(-0.00268239 0.000310537 0)
(-0.00280918 0.000314412 0)
(-0.00293818 0.000318074 0)
(-0.00306934 0.000321524 0)
(-0.00320258 0.000324763 0)
(-0.00333785 0.00032779 0)
(-0.00347506 0.000330608 0)
(-0.00361415 0.000333217 0)
(-0.00375505 0.000335618 0)
(-0.00389769 0.000337812 0)
(-0.00404199 0.0003398 0)
(-0.00418788 0.000341581 0)
(-0.00433528 0.000343157 0)
(-0.00448413 0.000344529 0)
(-0.00463433 0.000345697 0)
(-0.00478582 0.000346662 0)
(-0.00493851 0.000347423 0)
(-0.00509232 0.00034798 0)
(-0.00524716 0.000348335 0)
(-0.00540296 0.000348486 0)
(-0.00555962 0.000348434 0)
(-0.00571706 0.000348176 0)
(-0.00587519 0.000347715 0)
(-0.00603391 0.000347047 0)
(-0.00619314 0.000346173 0)
(-0.00635277 0.000345091 0)
(-0.00651271 0.0003438 0)
(-0.00667286 0.000342298 0)
(-0.00683311 0.000340584 0)
(-0.00699337 0.000338656 0)
(-0.00715352 0.00033651 0)
(-0.00731344 0.000334146 0)
(-0.00747304 0.000331561 0)
(-0.00763218 0.000328751 0)
(-0.00779076 0.000325714 0)
(-0.00794865 0.000322447 0)
(-0.00810571 0.000318947 0)
(-0.00826183 0.000315209 0)
(-0.00841686 0.000311231 0)
(-0.00857068 0.000307008 0)
(-0.00872313 0.000302537 0)
(-0.00887407 0.000297815 0)
(-0.00902335 0.000292836 0)
(-0.00917082 0.000287597 0)
(-0.00931632 0.000282095 0)
(-0.00945968 0.000276324 0)
(-0.00960075 0.000270282 0)
(-0.00973934 0.000263964 0)
(-0.00987528 0.000257366 0)
(-0.0100084 0.000250485 0)
(-0.0101385 0.000243318 0)
(-0.0102654 0.00023586 0)
(-0.0103889 0.00022811 0)
(-0.0105088 0.000220064 0)
(-0.0106249 0.000211719 0)
(-0.010737 0.000203073 0)
(-0.0108449 0.000194126 0)
(-0.0109484 0.000184875 0)
(-0.0110472 0.000175319 0)
(-0.0111412 0.00016546 0)
(-0.01123 0.000155296 0)
(-0.0113136 0.00014483 0)
(-0.0113916 0.000134062 0)
(-0.0114638 0.000122996 0)
(-0.0115301 0.000111636 0)
(-0.0115901 9.99855e-05 0)
(-0.0116436 8.80503e-05 0)
(-0.0116905 7.58355e-05 0)
(-0.0117304 6.33501e-05 0)
(-0.0117631 5.06006e-05 0)
(-0.0117885 3.75984e-05 0)
(-0.0118062 2.43518e-05 0)
(-0.0118161 1.08736e-05 0)
(4.79084e-07 -6.45766e-06 0)
(2.69389e-06 -1.71721e-05 0)
(6.98915e-06 -2.57468e-05 0)
(1.25779e-05 -3.21888e-05 0)
(1.89185e-05 -3.65728e-05 0)
(2.56201e-05 -3.90081e-05 0)
(3.23187e-05 -3.96252e-05 0)
(3.86601e-05 -3.85711e-05 0)
(4.43213e-05 -3.59952e-05 0)
(4.89976e-05 -3.20471e-05 0)
(5.24023e-05 -2.68735e-05 0)
(5.42724e-05 -2.06092e-05 0)
(5.43609e-05 -1.33832e-05 0)
(5.24405e-05 -5.31493e-06 0)
(4.83042e-05 3.48908e-06 0)
(4.17599e-05 1.29282e-05 0)
(3.26328e-05 2.29128e-05 0)
(2.07672e-05 3.33617e-05 0)
(6.01878e-06 4.42e-05 0)
(-1.17398e-05 5.53603e-05 0)
(-3.26221e-05 6.67827e-05 0)
(-5.67312e-05 7.84114e-05 0)
(-8.41561e-05 9.01964e-05 0)
(-0.000114975 0.000102094 0)
(-0.000149257 0.000114061 0)
(-0.000187059 0.000126062 0)
(-0.00022843 0.000138063 0)
(-0.000273412 0.000150033 0)
(-0.000322035 0.000161945 0)
(-0.000374326 0.000173774 0)
(-0.000430301 0.000185497 0)
(-0.000489973 0.000197093 0)
(-0.000553346 0.000208545 0)
(-0.000620419 0.000219834 0)
(-0.000691187 0.000230947 0)
(-0.000765639 0.000241869 0)
(-0.000843757 0.000252588 0)
(-0.000925523 0.000263093 0)
(-0.00101091 0.000273373 0)
(-0.00109989 0.000283421 0)
(-0.00119243 0.000293227 0)
(-0.0012885 0.000302786 0)
(-0.00138806 0.000312091 0)
(-0.00149105 0.000321136 0)
(-0.00159745 0.000329918 0)
(-0.0017072 0.000338431 0)
(-0.00182025 0.000346673 0)
(-0.00193654 0.00035464 0)
(-0.00205603 0.000362331 0)
(-0.00217866 0.000369743 0)
(-0.00230436 0.000376875 0)
(-0.00243307 0.000383725 0)
(-0.00256473 0.000390293 0)
(-0.00269928 0.000396579 0)
(-0.00283665 0.000402581 0)
(-0.00297678 0.000408301 0)
(-0.00311958 0.000413737 0)
(-0.00326499 0.000418891 0)
(-0.00341294 0.000423762 0)
(-0.00356335 0.000428352 0)
(-0.00371615 0.000432662 0)
(-0.00387126 0.000436692 0)
(-0.0040286 0.000440443 0)
(-0.00418809 0.000443917 0)
(-0.00434966 0.000447114 0)
(-0.00451321 0.000450035 0)
(-0.00467867 0.000452682 0)
(-0.00484596 0.000455055 0)
(-0.00501497 0.000457154 0)
(-0.00518564 0.000458981 0)
(-0.00535786 0.000460537 0)
(-0.00553156 0.000461821 0)
(-0.00570662 0.000462834 0)
(-0.00588297 0.000463576 0)
(-0.00606051 0.000464046 0)
(-0.00623914 0.000464245 0)
(-0.00641875 0.000464172 0)
(-0.00659926 0.000463827 0)
(-0.00678055 0.000463207 0)
(-0.00696252 0.000462313 0)
(-0.00714507 0.000461143 0)
(-0.00732807 0.000459695 0)
(-0.00751142 0.000457969 0)
(-0.00769501 0.00045596 0)
(-0.00787872 0.000453668 0)
(-0.00806241 0.000451089 0)
(-0.00824598 0.000448221 0)
(-0.00842929 0.000445061 0)
(-0.00861221 0.000441604 0)
(-0.00879461 0.000437849 0)
(-0.00897635 0.00043379 0)
(-0.00915729 0.000429423 0)
(-0.00933728 0.000424745 0)
(-0.00951617 0.00041975 0)
(-0.0096938 0.000414434 0)
(-0.00987003 0.000408792 0)
(-0.0100447 0.000402819 0)
(-0.0102176 0.00039651 0)
(-0.0103886 0.00038986 0)
(-0.0105575 0.000382864 0)
(-0.0107241 0.000375515 0)
(-0.0108883 0.00036781 0)
(-0.0110499 0.000359743 0)
(-0.0112085 0.000351308 0)
(-0.0113642 0.000342501 0)
(-0.0115165 0.000333317 0)
(-0.0116655 0.000323753 0)
(-0.0118107 0.000313802 0)
(-0.011952 0.000303462 0)
(-0.0120892 0.000292728 0)
(-0.012222 0.000281598 0)
(-0.0123502 0.000270069 0)
(-0.0124736 0.000258138 0)
(-0.0125919 0.000245804 0)
(-0.0127049 0.000233066 0)
(-0.0128123 0.000219924 0)
(-0.0129139 0.000206379 0)
(-0.0130093 0.000192432 0)
(-0.0130984 0.000178086 0)
(-0.0131809 0.000163345 0)
(-0.0132565 0.000148213 0)
(-0.0133249 0.000132697 0)
(-0.013386 0.000116804 0)
(-0.0134393 0.00010054 0)
(-0.0134847 8.39184e-05 0)
(-0.0135219 6.69472e-05 0)
(-0.0135507 4.96411e-05 0)
(-0.0135707 3.20125e-05 0)
(-0.0135818 1.40772e-05 0)
(4.70802e-07 -7.90109e-06 0)
(2.63283e-06 -2.0733e-05 0)