/*--------------------------------*- C++ -*----------------------------------*\
| =========                 |                                                 |
| \\      /  F ield         | OpenFOAM: The Open Source CFD Toolbox           |
|  \\    /   O peration     | Version:  2112                                  |
|   \\  /    A nd           | Website:  www.openfoam.com                      |
|    \\/     M anipulation  |                                                 |
\*---------------------------------------------------------------------------*/
FoamFile
{
    version     2.0;
    format      ascii;
    arch        "LSB;label=32;scalar=64";
    class       volScalarField;
    location    "5.94";
    object      p;
}
// * * * * * * * * * * * * * * * * * * * * * * * * * * * * * * * * * * * * * //

dimensions      [0 2 -2 0 0 0 0];

internalField   nonuniform List<scalar> 
66564
(
-3.68253e-10
4.98836e-06
1.14254e-05
1.68055e-05
1.98353e-05
1.99874e-05
1.69503e-05
1.05862e-05
8.82661e-07
-1.21121e-05
-2.8307e-05
-4.75812e-05
-6.98123e-05
-9.48464e-05
-0.000122552
-0.000152782
-0.000185383
-0.000220197
-0.000257057
-0.000295817
-0.000336331
-0.000378439
-0.000422003
-0.000466879
-0.000512923
-0.000560014
-0.000608028
-0.000656832
-0.000706305
-0.000756323
-0.000806754
-0.000857482
-0.000908401
-0.000959397
-0.00101037
-0.00106124
-0.00111189
-0.00116223
-0.00121215
-0.00126156
-0.00131037
-0.00135849
-0.00140583
-0.00145232
-0.00149786
-0.00154241
-0.00158588
-0.00162819
-0.00166927
-0.00170905
-0.00174748
-0.00178447
-0.00181998
-0.00185394
-0.0018863
-0.00191701
-0.00194601
-0.00197325
-0.00199867
-0.00202222
-0.00204387
-0.00206353
-0.00208115
-0.00209671
-0.00211016
-0.00212143
-0.00213048
-0.00213729
-0.00214181
-0.00214398
-0.00214378
-0.00214114
-0.00213603
-0.00212841
-0.00211823
-0.00210546
-0.00209006
-0.00207198
-0.00205118
-0.00202763
-0.00200128
-0.00197209
-0.00194
-0.00190497
-0.00186698
-0.00182598
-0.00178193
-0.00173477
-0.00168449
-0.00163104
-0.00157436
-0.00151444
-0.00145124
-0.00138471
-0.00131483
-0.00124154
-0.00116484
-0.00108468
-0.00100102
-0.000913828
-0.000823085
-0.000728771
-0.000630861
-0.000529335
-0.000424181
-0.00031539
-0.00020295
-8.68579e-05
3.2892e-05
0.000156289
0.000283328
0.000413999
0.000548276
0.000686138
0.000827543
0.000972445
0.0011208
0.00127253
0.0014276
0.0015859
0.00174737
0.00191192
0.00207945
0.00224983
0.00242295
0.00259864
0.00277678
0.0029572
0.00313971
-2.54335e-06
2.33632e-06
7.19013e-06
1.07756e-05
1.24053e-05
1.15957e-05
8.02383e-06
1.52755e-06
-7.95068e-06
-2.0414e-05
-3.58053e-05
-5.40648e-05
-7.50901e-05
-9.87754e-05
-0.000124995
-0.000153622
-0.00018453
-0.000217568
-0.000252591
-0.000289468
-0.000328055
-0.000368216
-0.000409822
-0.000452731
-0.000496813
-0.000541943
-0.00058799
-0.000634837
-0.000682368
-0.000730454
-0.000778994
-0.000827868
-0.000876958
-0.000926163
-0.00097538
-0.00102451
-0.00107346
-0.00112213
-0.00117042
-0.00121826
-0.00126553
-0.00131217
-0.00135808
-0.00140317
-0.00144737
-0.00149061
-0.00153281
-0.00157389
-0.0016138
-0.00165246
-0.0016898
-0.00172576
-0.00176028
-0.00179331
-0.00182477
-0.00185463
-0.00188282
-0.0019093
-0.001934
-0.00195687
-0.00197788
-0.00199696
-0.00201405
-0.00202911
-0.0020421
-0.00205297
-0.00206165
-0.00206813
-0.00207236
-0.00207428
-0.00207386
-0.00207106
-0.00206582
-0.00205811
-0.00204789
-0.00203512
-0.00201976
-0.00200176
-0.00198109
-0.0019577
-0.00193155
-0.0019026
-0.00187078
-0.00183609
-0.00179846
-0.00175787
-0.00171426
-0.0016676
-0.00161786
-0.00156499
-0.00150894
-0.00144969
-0.0013872
-0.00132144
-0.00125237
-0.00117994
-0.00110415
-0.00102494
-0.000942283
-0.000856149
-0.000766517
-0.000673367
-0.000576675
-0.000476419
-0.000372592
-0.000265186
-0.000154185
-3.95867e-05
7.86122e-05
0.0002004
0.000325767
0.000454711
0.000587201
0.000723217
0.000862714
0.00100565
0.00115197
0.00130162
0.00145453
0.00161063
0.00176983
0.00193205
0.00209721
0.00226515
0.00243578
0.00260893
0.00278448
0.00296226
0.00314209
-5.45268e-06
2.48219e-07
4.64306e-06
7.36941e-06
8.22961e-06
6.83364e-06
2.92531e-06
-3.6448e-06
-1.2959e-05
-2.50234e-05
-3.98273e-05
-5.73099e-05
-7.74073e-05
-0.000100036
-0.00012508
-0.000152433
-0.000181968
-0.000213565
-0.00024709
-0.000282406
-0.000319389
-0.00035792
-0.000397864
-0.0004391
-0.000481509
-0.000524953
-0.000569317
-0.000614481
-0.000660324
-0.000706737
-0.000753617
-0.000800852
-0.000848329
-0.000895946
-0.000943596
-0.000991181
-0.00103861
-0.00108579
-0.00113263
-0.00117903
-0.00122492
-0.0012702
-0.0013148
-0.00135862
-0.00140158
-0.00144361
-0.00148464
-0.00152459
-0.00156341
-0.00160102
-0.00163734
-0.00167233
-0.00170592
-0.00173805
-0.00176867
-0.00179771
-0.00182513
-0.00185087
-0.00187487
-0.00189709
-0.00191748
-0.00193598
-0.00195254
-0.00196711
-0.00197964
-0.00199009
-0.00199841
-0.00200454
-0.00200847
-0.00201012
-0.00200947
-0.00200647
-0.00200109
-0.00199326
-0.00198295
-0.00197015
-0.00195479
-0.00193683
-0.00191624
-0.00189297
-0.00186698
-0.00183821
-0.00180663
-0.00177221
-0.00173489
-0.00169465
-0.00165143
-0.00160521
-0.00155594
-0.00150359
-0.0014481
-0.00138945
-0.00132761
-0.00126254
-0.0011942
-0.00112255
-0.00104759
-0.000969252
-0.000887517
-0.000802356
-0.000713748
-0.000621673
-0.000526107
-0.000427029
-0.000324431
-0.000218312
-0.000108649
4.55959e-06
0.000121315
0.000241603
0.000365413
0.000492744
0.000623568
0.000757858
0.00089557
0.00103666
0.00118108
0.00132877
0.00147966
0.00163369
0.00179076
0.00195081
0.00211372
0.00227938
0.00244766
0.00261843
0.00279155
0.00296684
0.00314414
-7.63351e-06
-7.89033e-07
3.80944e-06
6.26246e-06
6.78391e-06
5.10238e-06
1.01982e-06
-5.57393e-06
-1.47357e-05
-2.64948e-05
-4.08389e-05
-5.77178e-05
-7.7085e-05
-9.88593e-05
-0.000122959
-0.000149268
-0.000177675
-0.000208078
-0.000240346
-0.000274356
-0.000310001
-0.000347147
-0.000385677
-0.000425484
-0.000466436
-0.000508426
-0.000551336
-0.000595038
-0.000639422
-0.000684384
-0.000729813
-0.000775606
-0.000821662
-0.00086787
-0.000914132
-0.000960354
-0.00100644
-0.0010523
-0.00109784
-0.00114298
-0.00118763
-0.0012317
-0.00127512
-0.00131779
-0.00135964
-0.0014006
-0.00144058
-0.00147952
-0.00151736
-0.00155401
-0.00158943
-0.00162354
-0.00165628
-0.0016876
-0.00171745
-0.00174576
-0.00177247
-0.00179755
-0.00182093
-0.00184256
-0.00186238
-0.00188036
-0.00189644
-0.00191056
-0.00192267
-0.00193275
-0.00194072
-0.00194655
-0.0019502
-0.00195161
-0.00195075
-0.00194758
-0.00194206
-0.00193412
-0.00192375
-0.00191092
-0.00189556
-0.00187764
-0.00185713
-0.00183397
-0.00180812
-0.00177954
-0.00174818
-0.00171401
-0.00167698
-0.00163706
-0.00159421
-0.00154839
-0.00149956
-0.00144768
-0.00139271
-0.00133462
-0.00127338
-0.00120894
-0.00114128
-0.00107036
-0.000996157
-0.000918628
-0.000837742
-0.000753478
-0.000665814
-0.000574729
-0.000480197
-0.000382203
-0.000280738
-0.000175797
-6.7361e-05
4.45717e-05
0.00016
0.000278915
0.000401301
0.000527158
0.000656456
0.000789166
0.000925249
0.00106465
0.00120734
0.00135325
0.0015023
0.00165443
0.00180957
0.00196762
0.0021285
0.00229208
0.00245824
0.00262684
0.00279774
0.00297078
0.00314579
-8.2237e-06
-2.98664e-07
4.65496e-06
7.05428e-06
7.4212e-06
5.59323e-06
1.41912e-06
-5.15913e-06
-1.41861e-05
-2.56769e-05
-3.96219e-05
-5.59908e-05
-7.47159e-05
-9.57465e-05
-0.000119001
-0.000144371
-0.00017177
-0.000201084
-0.000232196
-0.000265011
-0.000299408
-0.000335275
-0.000372501
-0.000410966
-0.000450559
-0.000491177
-0.000532701
-0.000575018
-0.000618024
-0.000661603
-0.000705657
-0.000750084
-0.000794773
-0.000839632
-0.000884564
-0.000929472
-0.000974263
-0.00101885
-0.00106315
-0.00110707
-0.00115053
-0.00119343
-0.0012357
-0.00127726
-0.00131803
-0.00135794
-0.0013969
-0.00143486
-0.00147174
-0.00150748
-0.001542
-0.00157526
-0.00160718
-0.00163771
-0.00166681
-0.00169441
-0.00172044
-0.00174486
-0.00176763
-0.00178868
-0.00180796
-0.00182543
-0.00184105
-0.00185473
-0.00186644
-0.00187615
-0.00188379
-0.00188932
-0.0018927
-0.00189389
-0.00189283
-0.0018895
-0.00188384
-0.00187582
-0.00186539
-0.00185253
-0.00183718
-0.00181931
-0.00179888
-0.00177584
-0.00175014
-0.00172175
-0.00169061
-0.0016567
-0.00161997
-0.00158038
-0.0015379
-0.00149249
-0.0014441
-0.0013927
-0.00133825
-0.00128073
-0.00122008
-0.00115629
-0.00108931
-0.00101911
-0.000945671
-0.000868948
-0.000788912
-0.000705545
-0.000618823
-0.000528722
-0.000435221
-0.000338306
-0.000237965
-0.000134191
-2.69707e-05
8.36969e-05
0.00019781
0.000315366
0.000436345
0.000560744
0.000688534
0.000819684
0.000954159
0.00109191
0.00123288
0.00137703
0.00152427
0.00167454
0.00182778
0.00198389
0.00214277
0.00230431
0.00246838
0.00263486
0.0028036
0.00297443
0.0031472
-6.43386e-06
2.27863e-06
7.54378e-06
9.96418e-06
1.02577e-05
8.34188e-06
4.12181e-06
-2.44372e-06
-1.13604e-05
-2.26292e-05
-3.6245e-05
-5.21717e-05
-7.03583e-05
-9.0741e-05
-0.000113244
-0.000137788
-0.000164278
-0.000192608
-0.000222684
-0.000254397
-0.000287643
-0.00032233
-0.000358337
-0.000395553
-0.000433883
-0.000473207
-0.000513423
-0.00055443
-0.000596116
-0.000638378
-0.000681118
-0.000724239
-0.000767623
-0.000811191
-0.000854842
-0.000898483
-0.000942027
-0.000985387
-0.00102847
-0.00107121
-0.0011135
-0.00115526
-0.00119642
-0.0012369
-0.00127661
-0.00131549
-0.00135346
-0.00139045
-0.00142639
-0.00146121
-0.00149487
-0.00152728
-0.0015584
-0.00158816
-0.00161651
-0.0016434
-0.00166876
-0.00169254
-0.0017147
-0.00173518
-0.00175392
-0.00177088
-0.00178602
-0.00179928
-0.00181059
-0.00181993
-0.00182725
-0.00183248
-0.00183559
-0.00183655
-0.00183531
-0.00183181
-0.00182602
-0.0018179
-0.00180742
-0.00179454
-0.0017792
-0.00176137
-0.00174103
-0.0017181
-0.00169256
-0.00166435
-0.00163344
-0.0015998
-0.00156336
-0.0015241
-0.001482
-0.00143699
-0.00138905
-0.00133813
-0.00128421
-0.00122725
-0.00116721
-0.00110405
-0.00103776
-0.000968288
-0.000895613
-0.000819697
-0.000740515
-0.000658049
-0.00057227
-0.000483154
-0.000390683
-0.000294848
-0.000195633
-9.30251e-05
1.29834e-05
0.000122389
0.000235188
0.000351385
0.000470961
0.000593907
0.000720191
0.000849784
0.000982657
0.00111876
0.00125803
0.00140042
0.00154586
0.00169429
0.00184565
0.00199982
0.00215672
0.00231623
0.00247824
0.00264262
0.00280921
0.00297786
0.00314842
-1.82514e-06
7.32663e-06
1.27883e-05
1.52052e-05
1.54273e-05
1.34354e-05
9.15839e-06
2.5935e-06
-6.25401e-06
-1.73655e-05
-3.07172e-05
-4.62884e-05
-6.40269e-05
-8.38585e-05
-0.000105724
-0.000129545
-0.000155227
-0.00018269
-0.000211836
-0.000242557
-0.000274768
-0.000308367
-0.000343248
-0.000379321
-0.000416472
-0.000454594
-0.000493595
-0.000533373
-0.000573821
-0.000614843
-0.000656341
-0.000698214
-0.000740368
-0.000782706
-0.000825136
-0.000867571
-0.000909922
-0.000952103
-0.00099403
-0.00103562
-0.00107679
-0.00111745
-0.00115753
-0.00119696
-0.00123564
-0.00127352
-0.00131052
-0.00134656
-0.00138159
-0.00141553
-0.00144833
-0.00147993
-0.00151025
-0.00153926
-0.00156689
-0.00159308
-0.00161778
-0.00164093
-0.00166249
-0.0016824
-0.00170062
-0.00171708
-0.00173175
-0.00174457
-0.0017555
-0.00176447
-0.00177146
-0.0017764
-0.00177925
-0.00177999
-0.00177855
-0.00177489
-0.00176898
-0.00176078
-0.00175024
-0.00173733
-0.001722
-0.00170422
-0.00168396
-0.00166115
-0.00163575
-0.00160773
-0.00157705
-0.00154366
-0.00150752
-0.0014686
-0.00142687
-0.00138227
-0.00133476
-0.00128433
-0.00123093
-0.00117453
-0.00111509
-0.00105258
-0.000986969
-0.000918224
-0.000846311
-0.000771202
-0.000692871
-0.000611302
-0.00052646
-0.000438322
-0.000346875
-0.000252111
-0.00015401
-5.25597e-05
5.22439e-05
0.000160396
0.000271892
0.000386741
0.000504925
0.000626428
0.00075122
0.000879272
0.00101056
0.00114502
0.00128261
0.00142327
0.00156694
0.00171356
0.00186304
0.0020153
0.00217025
0.00232777
0.00248775
0.00265005
0.00281453
0.00298104
0.00314942
5.84976e-06
1.50972e-05
2.05664e-05
2.28992e-05
2.30007e-05
2.08829e-05
1.65128e-05
9.90462e-06
1.07648e-06
-9.93593e-06
-2.3107e-05
-3.84026e-05
-5.57692e-05
-7.51529e-05
-9.64812e-05
-0.000119674
-0.000144661
-0.000171358
-0.000199669
-0.000229512
-0.000260786
-0.000293397
-0.000327258
-0.000362273
-0.000398335
-0.000435347
-0.000473214
-0.000511843
-0.000551134
-0.00059099
-0.000631318
-0.000672018
-0.000713003
-0.000754175
-0.000795448
-0.000836734
-0.000877945
-0.000919003
-0.000959821
-0.00100031
-0.0010404
-0.00108
-0.00111905
-0.00115745
-0.00119514
-0.00123205
-0.00126811
-0.00130324
-0.00133738
-0.00137047
-0.00140243
-0.00143323
-0.00146279
-0.00149106
-0.00151797
-0.00154348
-0.00156754
-0.00159008
-0.00161105
-0.0016304
-0.0016481
-0.00166408
-0.00167829
-0.00169068
-0.00170122
-0.00170984
-0.0017165
-0.00172115
-0.00172376
-0.00172427
-0.00172264
-0.00171883
-0.0017128
-0.00170451
-0.00169391
-0.00168098
-0.00166567
-0.00164794
-0.00162775
-0.00160505
-0.00157981
-0.00155198
-0.00152152
-0.00148839
-0.00145255
-0.00141397
-0.00137259
-0.0013284
-0.00128134
-0.00123139
-0.00117851
-0.00112267
-0.00106383
-0.00100196
-0.000937031
-0.000869007
-0.000797856
-0.000723551
-0.000646068
-0.000565386
-0.000481476
-0.000394311
-0.000303879
-0.000210173
-0.000113176
-1.2875e-05
9.07333e-05
0.000197643
0.000307851
0.000421363
0.000538166
0.000658239
0.000781556
0.000908085
0.0010378
0.00117065
0.00130658
0.00144554
0.00158746
0.00173228
0.00187993
0.00203031
0.00218334
0.0023389
0.00249688
0.00265715
0.00281956
0.00298396
0.00315019
1.67081e-05
2.57158e-05
3.09812e-05
3.31193e-05
3.30087e-05
3.06933e-05
2.61616e-05
1.94457e-05
1.05782e-05
-4.06926e-07
-1.34706e-05
-2.85671e-05
-4.56538e-05
-6.46753e-05
-8.55532e-05
-0.000108224
-0.000132613
-0.000158636
-0.000186221
-0.000215275
-0.000245706
-0.000277432
-0.000310365
-0.000344409
-0.000379473
-0.00041546
-0.000452275
-0.000489835
-0.000528047
-0.00056681
-0.000606034
-0.000645633
-0.000685511
-0.00072558
-0.000765756
-0.000805949
-0.000846078
-0.000886061
-0.000925813
-0.000965253
-0.0010043
-0.00104289
-0.00108093
-0.00111835
-0.00115509
-0.00119106
-0.0012262
-0.00126045
-0.00129373
-0.00132598
-0.00135714
-0.00138715
-0.00141597
-0.00144352
-0.00146974
-0.00149459
-0.00151802
-0.00153995
-0.00156035
-0.00157916
-0.00159634
-0.00161184
-0.0016256
-0.00163758
-0.00164774
-0.001656
-0.00166235
-0.00166672
-0.00166908
-0.00166937
-0.00166756
-0.0016636
-0.00165745
-0.00164908
-0.00163842
-0.00162547
-0.00161017
-0.00159249
-0.00157238
-0.0015498
-0.00152471
-0.00149707
-0.00146684
-0.00143396
-0.00139842
-0.00136017
-0.00131917
-0.00127537
-0.00122876
-0.00117929
-0.00112693
-0.00107165
-0.00101341
-0.000952182
-0.000887933
-0.000820627
-0.000750234
-0.000676732
-0.000600092
-0.000520293
-0.000437305
-0.000351107
-0.000261685
-0.000169029
-7.31253e-05
2.60361e-05
0.000128457
0.000234135
0.000343064
0.000455254
0.000570688
0.000689344
0.0008112
0.000936225
0.00106439
0.00119565
0.00132994
0.00146721
0.00160741
0.00175047
0.0018963
0.00204484
0.00219598
0.00234961
0.00250563
0.00266389
0.00282427
0.0029866
0.00315074
3.07643e-05
3.92438e-05
4.41004e-05
4.58863e-05
4.54614e-05
4.28572e-05
3.80797e-05
3.11837e-05
2.2201e-05
1.11704e-05
-1.85605e-06
-1.68399e-05
-3.37318e-05
-5.24682e-05
-7.29913e-05
-9.52293e-05
-0.000119111
-0.000144563
-0.000171513
-0.00019987
-0.000229556
-0.000260489
-0.000292579
-0.000325742
-0.000359895
-0.000394939
-0.000430786
-0.000467357
-0.000504558
-0.000542302
-0.000580494
-0.000619055
-0.000657889
-0.000696917
-0.000736051
-0.000775208
-0.000814308
-0.000853265
-0.000892
-0.000930436
-0.000968495
-0.0010061
-0.00104318
-0.00107966
-0.00111547
-0.00115054
-0.00118479
-0.00121818
-0.00125063
-0.00128207
-0.00131244
-0.0013417
-0.00136979
-0.00139663
-0.00142219
-0.00144639
-0.00146919
-0.00149054
-0.00151038
-0.00152866
-0.00154534
-0.00156037
-0.0015737
-0.00158527
-0.00159505
-0.00160297
-0.001609
-0.0016131
-0.00161521
-0.00161529
-0.0016133
-0.00160919
-0.00160293
-0.00159447
-0.00158377
-0.0015708
-0.00155552
-0.00153789
-0.00151786
-0.0014954
-0.00147047
-0.00144301
-0.001413
-0.00138039
-0.00134514
-0.00130723
-0.00126659
-0.00122319
-0.00117702
-0.00112804
-0.0010762
-0.00102147
-0.000963835
-0.000903248
-0.000839675
-0.000773083
-0.000703448
-0.000630746
-0.000554945
-0.000476019
-0.000393948
-0.000308712
-0.000220293
-0.000128678
-3.38594e-05
6.41699e-05
0.000165411
0.000269865
0.000377531
0.00048841
0.000602487
0.000719741
0.000840152
0.000963692
0.00109033
0.00122001
0.00135268
0.00148829
0.0016268
0.00176811
0.00191217
0.00205888
0.00220816
0.0023599
0.00251399
0.00267028
0.00282866
0.00298896
0.00315104
4.79657e-05
5.56672e-05
5.99195e-05
6.12128e-05
6.03445e-05
5.73529e-05
5.22457e-05
4.50756e-05
3.58949e-05
2.47494e-05
1.1677e-05
-3.27331e-06
-2.00461e-05
-3.85886e-05
-5.88408e-05
-8.07323e-05
-0.000104197
-0.000129169
-0.000155567
-0.000183322
-0.000212358
-0.000242584
-0.000273922
-0.000306292
-0.000339612
-0.000373794
-0.000408756
-0.000444414
-0.000480678
-0.00051747
-0.000554703
-0.000592286
-0.000630142
-0.000668186
-0.000706335
-0.000744512
-0.000782633
-0.000820614
-0.000858381
-0.000895858
-0.000932966
-0.000969633
-0.00100579
-0.00104136
-0.00107628
-0.00111048
-0.00114389
-0.00117644
-0.00120808
-0.00123873
-0.00126836
-0.00129688
-0.00132425
-0.00135041
-0.00137531
-0.00139888
-0.00142108
-0.00144185
-0.00146115
-0.00147892
-0.00149511
-0.00150968
-0.00152258
-0.00153376
-0.00154317
-0.00155075
-0.00155648
-0.0015603
-0.00156217
-0.00156204
-0.00155987
-0.00155562
-0.00154924
-0.0015407
-0.00152996
-0.00151698
-0.00150172
-0.00148414
-0.00146419
-0.00144186
-0.00141708
-0.00138981
-0.00136002
-0.00132767
-0.00129273
-0.00125514
-0.00121486
-0.00117188
-0.00112615
-0.00107765
-0.00102633
-0.00097216
-0.00091512
-0.000855169
-0.000792269
-0.00072639
-0.000657508
-0.000585601
-0.000510633
-0.000432578
-0.000351419
-0.000267137
-0.000179714
-8.91361e-05
4.60442e-06
0.000101509
0.00020158
0.000304822
0.000411234
0.000520816
0.000633551
0.000749419
0.000868402
0.000990474
0.0011156
0.00124372
0.0013748
0.00150878
0.00164561
0.00178521
0.00192751
0.00207243
0.00221988
0.00236976
0.00252194
0.00267631
0.00283272
0.00299103
0.00315109
6.82213e-05
7.49227e-05
7.84052e-05
7.90691e-05
7.76298e-05
7.41438e-05
6.86121e-05
6.10855e-05
5.16273e-05
4.02763e-05
2.70776e-05
1.20866e-05
-4.64994e-06
-2.30819e-05
-4.3143e-05
-6.47776e-05
-8.79166e-05
-0.000112487
-0.000138426
-0.000165667
-0.000194131
-0.000223738
-0.000254411
-0.000286071
-0.00031864
-0.000352042
-0.000386192
-0.00042101
-0.000456416
-0.000492324
-0.000528659
-0.000565334
-0.000602271
-0.00063939
-0.000676613
-0.00071386
-0.000751051
-0.000788107
-0.000824954
-0.000861516
-0.000897718
-0.00093349
-0.000968763
-0.00100347
-0.00103753
-0.00107089
-0.00110348
-0.00113524
-0.00116609
-0.00119598
-0.00122487
-0.00125268
-0.00127936
-0.00130485
-0.00132911
-0.00135207
-0.00137368
-0.00139389
-0.00141266
-0.00142993
-0.00144565
-0.00145977
-0.00147226
-0.00148305
-0.0014921
-0.00149936
-0.00150478
-0.00150833
-0.00150996
-0.00150962
-0.00150728
-0.00150289
-0.0014964
-0.00148779
-0.001477
-0.00146402
-0.00144878
-0.00143126
-0.00141141
-0.00138919
-0.00136457
-0.00133749
-0.00130793
-0.00127584
-0.00124118
-0.00120392
-0.00116402
-0.00112144
-0.00107616
-0.00102813
-0.000977332
-0.000923722
-0.000867278
-0.000807961
-0.000745731
-0.000680561
-0.000612429
-0.00054131
-0.00046717
-0.000389983
-0.000309732
-0.000226399
-0.000139966
-5.04192e-05
4.22493e-05
0.000138039
0.000236949
0.00033899
0.00044416
0.000552458
0.000663866
0.000778365
0.00089594
0.00101656
0.00114019
0.00126678
0.00139629
0.00152865
0.00166383
0.00180174
0.00194231
0.00208547
0.00223112
0.00237917
0.00252949
0.00268196
0.00283644
0.0029928
0.00315087
9.14109e-05
9.6933e-05
9.94863e-05
9.9395e-05
9.72776e-05
9.31828e-05
8.71301e-05
7.91699e-05
6.93464e-05
5.77067e-05
4.43049e-05
2.91886e-05
1.24037e-05
-5.99072e-06
-2.59469e-05
-4.74062e-05
-7.02968e-05
-9.45563e-05
-0.000120124
-0.00014693
-0.000174905
-0.000203976
-0.000234063
-0.000265093
-0.000296994
-0.000329693
-0.000363105
-0.000397156
-0.000431772
-0.00046687
-0.00050237
-0.0005382
-0.000574278
-0.000610532
-0.000646883
-0.000683252
-0.000719565
-0.000755747
-0.00079172
-0.000827412
-0.000862752
-0.00089767
-0.000932101
-0.000965972
-0.000999218
-0.00103178
-0.00106358
-0.00109456
-0.00112466
-0.00115382
-0.00118199
-0.00120911
-0.00123512
-0.00125996
-0.0012836
-0.00130596
-0.001327
-0.00134667
-0.00136493
-0.0013817
-0.00139696
-0.00141066
-0.00142274
-0.00143315
-0.00144184
-0.00144878
-0.00145392
-0.00145721
-0.0014586
-0.00145806
-0.00145555
-0.00145102
-0.00144442
-0.00143574
-0.00142492
-0.00141193
-0.00139672
-0.00137926
-0.0013595
-0.00133741
-0.00131294
-0.00128605
-0.00125672
-0.00122489
-0.00119053
-0.0011536
-0.00111407
-0.0010719
-0.00102706
-0.000979512
-0.000929229
-0.000876177
-0.000820325
-0.000761635
-0.000700072
-0.00063561
-0.000568224
-0.000497888
-0.00042457
-0.000348248
-0.000268902
-0.000186513
-0.000101064
-1.2542e-05
7.90595e-05
0.00017374
0.000271502
0.000372355
0.000476297
0.000583323
0.000693419
0.000806567
0.00092275
0.00104194
0.00116409
0.00128917
0.00141712
0.0015479
0.00168145
0.0018177
0.00195657
0.00209799
0.00224188
0.00238813
0.00253661
0.00268721
0.00283981
0.00299425
0.00315038
0.000117432
0.000121597
0.000123085
0.000122127
0.00011922
0.000114423
0.000107756
9.92665e-05
8.89956e-05
7.69954e-05
6.3308e-05
4.79824e-05
3.10736e-05
1.26301e-05
-7.3022e-06
-2.86577e-05
-5.13824e-05
-7.54164e-05
-0.000100691
-0.000127143
-0.00015471
-0.000183321
-0.000212899
-0.000243378
-0.000274689
-0.000306755
-0.000339503
-0.000372864
-0.000406755
-0.000441109
-0.000475844
-0.000510889
-0.00054617
-0.000581615
-0.000617148
-0.000652694
-0.00068818
-0.000723535
-0.000758681
-0.000793548
-0.000828069
-0.000862176
-0.0008958
-0.000928877
-0.000961343
-0.000993128
-0.00102417
-0.00105441
-0.00108379
-0.00111224
-0.00113972
-0.00116617
-0.00119153
-0.00121575
-0.00123878
-0.00126056
-0.00128105
-0.0013002
-0.00131794
-0.00133425
-0.00134906
-0.00136234
-0.00137402
-0.00138406
-0.00139242
-0.00139904
-0.00140389
-0.00140692
-0.00140809
-0.00140735
-0.00140468
-0.00140001
-0.00139332
-0.00138458
-0.00137373
-0.00136073
-0.00134555
-0.00132815
-0.00130849
-0.00128653
-0.00126221
-0.00123552
-0.00120641
-0.00117485
-0.00114078
-0.00110418
-0.00106502
-0.00102326
-0.000978864
-0.000931797
-0.000882034
-0.000829537
-0.000774274
-0.000716207
-0.000655309
-0.000591552
-0.000524908
-0.00045535
-0.000382852
-0.000307391
-0.000228946
-0.000147496
-6.30245e-05
2.44793e-05
0.000115019
0.0002086
0.000305226
0.000404904
0.000507629
0.000613396
0.000722194
0.000834008
0.000948817
0.00106659
0.00118729
0.00131087
0.0014373
0.00156651
0.00169846
0.00183307
0.00197026
0.00210998
0.00225213
0.00239661
0.00254329
0.00269207
0.00284281
0.00299537
0.0031496
0.00014615
0.000148823
0.000149112
0.000147173
0.000143386
0.000137795
0.000130425
0.000121316
0.00011052
9.80739e-05
8.40217e-05
6.84162e-05
5.13018e-05
3.27276e-05
1.27482e-05
-8.58442e-06
-3.12224e-05
-5.51033e-05
-8.01617e-05
-0.00010634
-0.000133575
-0.000161798
-0.000190944
-0.000220947
-0.000251738
-0.000283247
-0.000315404
-0.00034814
-0.000381379
-0.00041505
-0.000449084
-0.000483408
-0.000517952
-0.000552646
-0.000587415
-0.000622192
-0.000656903
-0.000691476
-0.000725841
-0.00075993
-0.000793675
-0.000827009
-0.000859866
-0.000892187
-0.000923904
-0.00095495
-0.000985264
-0.00101479
-0.00104347
-0.00107125
-0.00109806
-0.00112387
-0.0011486
-0.00117222
-0.00119466
-0.00121589
-0.00123584
-0.00125447
-0.00127173
-0.00128757
-0.00130195
-0.00131481
-0.00132611
-0.00133579
-0.00134382
-0.00135014
-0.00135471
-0.00135749
-0.00135844
-0.00135752
-0.00135468
-0.0013499
-0.00134312
-0.00133431
-0.00132343
-0.00131044
-0.00129529
-0.00127796
-0.00125839
-0.00123655
-0.0012124
-0.0011859
-0.00115702
-0.00112572
-0.00109195
-0.00105569
-0.00101691
-0.000975551
-0.000931595
-0.000885008
-0.000835761
-0.000783817
-0.000729139
-0.000671696
-0.000611459
-0.000548403
-0.000482499
-0.000413717
-0.000342034
-0.00026743
-0.000189883
-0.000109366
-2.58648e-05
6.06273e-05
0.000150115
0.000242607
0.000338107
0.000436619
0.00053814
0.000642662
0.000750179
0.000860673
0.000974121
0.0010905
0.00120976
0.00133187
0.00145679
0.00158447
0.00171483
0.00184783
0.00198338
0.00212142
0.00226186
0.0024046
0.00254951
0.0026965
0.00284543
0.00299615
0.00314851
0.000177424
0.00017849
0.000177476
0.00017446
0.0001697
0.000163223
0.000155061
0.000145259
0.000133852
0.00012088
0.00010639
9.04231e-05
7.30267e-05
5.42548e-05
3.4151e-05
1.27607e-05
-9.86261e-06
-3.36608e-05
-5.8579e-05
-8.45545e-05
-0.000111529
-0.000139442
-0.000168229
-0.000197824
-0.000228166
-0.000259189
-0.000290824
-0.000323001
-0.000355655
-0.00038871
-0.000422105
-0.000455769
-0.000489635
-0.000523633
-0.000557696
-0.000591754
-0.00062574
-0.000659581
-0.000693211
-0.000726565
-0.000759574
-0.000792174
-0.000824306
-0.000855905
-0.000886905
-0.000917246
-0.000946868
-0.000975713
-0.00100373
-0.00103085
-0.00105703
-0.00108221
-0.00110635
-0.00112938
-0.00115126
-0.00117194
-0.00119137
-0.0012095
-0.00122629
-0.00124168
-0.00125563
-0.00126809
-0.00127901
-0.00128835
-0.00129606
-0.00130209
-0.00130639
-0.00130893
-0.00130968
-0.00130858
-0.00130559
-0.00130068
-0.00129382
-0.00128495
-0.00127404
-0.00126106
-0.00124595
-0.00122868
-0.00120921
-0.0011875
-0.00116352
-0.00113722
-0.00110857
-0.00107753
-0.00104407
-0.00100815
-0.00096973
-0.000928782
-0.000885269
-0.000839161
-0.000790429
-0.000739034
-0.000684941
-0.00062812
-0.000568543
-0.000506185
-0.000441017
-0.000373008
-0.000302139
-0.000228388
-0.00015173
-7.21397e-05
1.03972e-05
9.58852e-05
0.000184331
0.000275743
0.000370128
0.000467485
0.000567812
0.000671103
0.000777351
0.00088654
0.000998645
0.00111364
0.00123149
0.00135215
0.00147559
0.00160174
0.00173055
0.00186197
0.0019959
0.0021323
0.00227106
0.00241208
0.00255527
0.00270049
0.00284764
0.00299656
0.0031471
0.000211104
0.000210469
0.000208071
0.000203899
0.000198071
0.000190627
0.000181597
0.000171014
0.000158917
0.00014535
0.000130346
0.000113945
9.62004e-05
7.71547e-05
5.68489e-05
3.53329e-05
1.26546e-05
-1.11369e-05
-3.59836e-05
-6.18248e-05
-8.86101e-05
-0.000116283
-0.000144781
-0.00017404
-0.000204003
-0.000234604
-0.000265783
-0.00029747
-0.000329597
-0.000362102
-0.000394919
-0.000427983
-0.000461228
-0.000494588
-0.000527998
-0.000561391
-0.0005947
-0.000627858
-0.0006608
-0.00069346
-0.000725775
-0.000757684
-0.000789127
-0.000820039
-0.000850357
-0.000880027
-0.000908987
-0.000937181
-0.000964553
-0.000991052
-0.00101663
-0.00104121
-0.00106477
-0.00108724
-0.00110858
-0.00112874
-0.00114766
-0.00116531
-0.00118164
-0.00119659
-0.00121013
-0.0012222
-0.00123276
-0.00124176
-0.00124915
-0.00125489
-0.00125895
-0.00126127
-0.00126181
-0.00126054
-0.00125741
-0.00125239
-0.00124544
-0.00123652
-0.00122559
-0.00121261
-0.00119754
-0.00118035
-0.00116098
-0.0011394
-0.00111558
-0.00108949
-0.00106107
-0.0010303
-0.000997144
-0.000961563
-0.000923517
-0.000882973
-0.000839904
-0.000794277
-0.000746056
-0.000695208
-0.000641698
-0.0005855
-0.000526584
-0.000464921
-0.000400484
-0.000333247
-0.000263188
-0.000190283
-0.000114507
-3.58355e-05
4.57439e-05
0.000130235
0.000217647
0.000307992
0.000401271
0.000497483
0.000596625
0.000698697
0.000803691
0.00091159
0.00102237
0.001136
0.00125245
0.00137169
0.00149366
0.00161832
0.00174561
0.00187546
0.00200781
0.00214258
0.00227969
0.00241904
0.00256053
0.00270403
0.00284944
0.00299659
0.00314535
0.000247049
0.00024464
0.000240777
0.00023537
0.000228406
0.000219923
0.000209944
0.000198505
0.00018565
0.000171409
0.00015582
0.000138924
0.000120761
0.000101369
8.07937e-05
5.90839e-05
3.62806e-05
1.24297e-05
-1.24123e-05
-3.81926e-05
-6.48599e-05
-9.23586e-05
-0.000120632
-0.000149624
-0.000179276
-0.000209524
-0.000240306
-0.000271565
-0.000303231
-0.000335246
-0.000367545
-0.000400066
-0.000432747
-0.000465524
-0.000498335
-0.000531112
-0.000563793
-0.000596316
-0.000628614
-0.000660624
-0.000692288
-0.000723547
-0.000754337
-0.000784597
-0.000814271
-0.000843302
-0.000871631
-0.000899203
-0.000925966
-0.00095187
-0.000976859
-0.00100088
-0.00102388
-0.00104582
-0.00106664
-0.00108629
-0.00110472
-0.0011219
-0.00113778
-0.00115231
-0.00116544
-0.00117714
-0.00118735
-0.00119602
-0.00120311
-0.00120859
-0.0012124
-0.0012145
-0.00121485
-0.00121342
-0.00121016
-0.00120503
-0.001198
-0.00118903
-0.00117808
-0.00116511
-0.00115009
-0.00113296
-0.0011137
-0.00109226
-0.00106862
-0.00104273
-0.00101455
-0.000984051
-0.000951203
-0.000915961
-0.000878285
-0.000838147
-0.000795521
-0.000750372
-0.000702663
-0.00065236
-0.000599435
-0.00054386
-0.000485601
-0.000424632
-0.000360924
-0.000294454
-0.0002252
-0.000153136
-7.82341e-05
-4.74038e-07
8.01541e-05
0.000163657
0.000250046
0.000339331
0.000431514
0.00052659
0.00062456
0.000725425
0.000829177
0.0009358
0.00104526
0.00115755
0.00127263
0.00139046
0.001511
0.00163419
0.00175997
0.00188829
0.00201908
0.00215226
0.00228775
0.00242546
0.00256528
0.0027071
0.00285079
0.00299622
0.00314324
0.000285137
0.000280876
0.000275476
0.000268767
0.000260603
0.000251003
0.00024001
0.000227654
0.000213968
0.000198987
0.000182754
0.000165295
0.000146645
0.000126843
0.000105935
8.39606e-05
6.09634e-05
3.69894e-05
1.2085e-05
-1.37027e-05
-4.03172e-05
-6.77087e-05
-9.58265e-05
-0.000124614
-0.000154016
-0.000183973
-0.000214425
-0.000245312
-0.000276579
-0.000308162
-0.000340001
-0.000372035
-0.000404206
-0.000436455
-0.000468717
-0.000500929
-0.000533033
-0.000564965
-0.000596663
-0.000628069
-0.000659125
-0.00068977
-0.000719945
-0.000749593
-0.000778657
-0.00080708
-0.00083481
-0.000861791
-0.000887974
-0.000913308
-0.000937738
-0.000961212
-0.000983684
-0.00100511
-0.00102543
-0.00104459
-0.00106256
-0.00107929
-0.00109474
-0.00110886
-0.0011216
-0.00113293
-0.0011428
-0.00115116
-0.00115797
-0.00116318
-0.00116676
-0.00116865
-0.00116882
-0.00116723
-0.00116384
-0.00115862
-0.00115151
-0.0011425
-0.00113153
-0.00111858
-0.00110361
-0.00108656
-0.0010674
-0.00104611
-0.00102265