/*--------------------------------*- C++ -*----------------------------------*\
| =========                 |                                                 |
| \\      /  F ield         | OpenFOAM: The Open Source CFD Toolbox           |
|  \\    /   O peration     | Version:  2112                                  |
|   \\  /    A nd           | Website:  www.openfoam.com                      |
|    \\/     M anipulation  |                                                 |
\*---------------------------------------------------------------------------*/
FoamFile
{
    version     2.0;
    format      ascii;
    arch        "LSB;label=32;scalar=64";
    class       surfaceScalarField;
    location    "5.94";
    object      phi;
}
// * * * * * * * * * * * * * * * * * * * * * * * * * * * * * * * * * * * * * //

dimensions      [0 3 -1 0 0 0 0];

oriented        oriented;

internalField   nonuniform List<scalar> 
132612
(
-2.4976e-11
2.49624e-11
3.92846e-11
-6.43583e-11
2.13299e-10
-1.74017e-10
4.71907e-10
-2.58598e-10
7.92065e-10
-3.20134e-10
1.15209e-09
-3.60039e-10
1.53339e-09
-3.81308e-10
1.92001e-09
-3.86686e-10
2.29891e-09
-3.78845e-10
2.65891e-09
-3.59939e-10
2.99059e-09
-3.31671e-10
3.28612e-09
-2.95523e-10
3.53865e-09
-2.52531e-10
3.7426e-09
-2.03937e-10
3.89293e-09
-1.50359e-10
3.98544e-09
-9.24824e-11
4.01643e-09
-3.10046e-11
3.9829e-09
3.35211e-11
3.88227e-09
1.00615e-10
3.7122e-09
1.69974e-10
3.47085e-09
2.41265e-10
3.15672e-09
3.14062e-10
2.76851e-09
3.88182e-10
2.30524e-09
4.6328e-10
1.76608e-09
5.39151e-10
1.15044e-09
6.15682e-10
4.57859e-10
6.92551e-10
-3.119e-10
7.6978e-10
-1.15895e-09
8.47084e-10
-2.08323e-09
9.24309e-10
-3.08463e-09
1.00146e-09
-4.16282e-09
1.07823e-09
-5.31741e-09
1.15459e-09
-6.54794e-09
1.23056e-09
-7.85388e-09
1.30598e-09
-9.23457e-09
1.3807e-09
-1.06893e-08
1.45477e-09
-1.22173e-08
1.52803e-09
-1.38177e-08
1.60034e-09
-1.54896e-08
1.67186e-09
-1.7232e-08
1.74242e-09
-1.90439e-08
1.81187e-09
-2.09243e-08
1.88035e-09
-2.28719e-08
1.9477e-09
-2.48858e-08
2.01379e-09
-2.69646e-08
2.07883e-09
-2.91072e-08
2.14266e-09
-3.13124e-08
2.20516e-09
-3.35788e-08
2.26641e-09
-3.59052e-08
2.32641e-09
-3.82903e-08
2.38507e-09
-4.07326e-08
2.44228e-09
-4.32307e-08
2.49815e-09
-4.57835e-08
2.55267e-09
-4.83893e-08
2.60578e-09
-5.10468e-08
2.65744e-09
-5.37545e-08
2.70775e-09
-5.6511e-08
2.75658e-09
-5.93149e-08
2.80381e-09
-6.21644e-08
2.8496e-09
-6.50584e-08
2.89398e-09
-6.79951e-08
2.93674e-09
-7.0973e-08
2.97789e-09
-7.39905e-08
3.0176e-09
-7.70462e-08
3.05576e-09
-8.01384e-08
3.09221e-09
-8.32654e-08
3.12704e-09
-8.64257e-08
3.16035e-09
-8.96178e-08
3.19203e-09
-9.28398e-08
3.22204e-09
-9.60903e-08
3.25042e-09
-9.93674e-08
3.27705e-09
-1.02669e-07
3.30197e-09
-1.05995e-07
3.32519e-09
-1.09341e-07
3.3466e-09
-1.12707e-07
3.3662e-09
-1.16091e-07
3.38403e-09
-1.19491e-07
3.39995e-09
-1.22905e-07
3.41396e-09
-1.26331e-07
3.42604e-09
-1.29768e-07
3.43621e-09
-1.33212e-07
3.44436e-09
-1.36662e-07
3.45036e-09
-1.40117e-07
3.45421e-09
-1.43573e-07
3.45595e-09
-1.47028e-07
3.45556e-09
-1.50481e-07
3.45275e-09
-1.53928e-07
3.44756e-09
-1.57368e-07
3.44011e-09
-1.60799e-07
3.43016e-09
-1.64216e-07
3.41759e-09
-1.67619e-07
3.40242e-09
-1.71003e-07
3.38457e-09
-1.74367e-07
3.36396e-09
-1.77708e-07
3.34046e-09
-1.81022e-07
3.31401e-09
-1.84306e-07
3.28455e-09
-1.87558e-07
3.25189e-09
-1.90774e-07
3.21607e-09
-1.93951e-07
3.17688e-09
-1.97085e-07
3.13429e-09
-2.00173e-07
3.08811e-09
-2.03212e-07
3.03831e-09
-2.06197e-07
2.98482e-09
-2.09124e-07
2.92748e-09
-2.1199e-07
2.86618e-09
-2.14791e-07
2.80076e-09
-2.17522e-07
2.73129e-09
-2.2018e-07
2.65755e-09
-2.22759e-07
2.57948e-09
-2.25256e-07
2.49688e-09
-2.27666e-07
2.40973e-09
-2.29984e-07
2.31801e-09
-2.32205e-07
2.22144e-09
-2.34326e-07
2.1201e-09
-2.36339e-07
2.01386e-09
-2.38242e-07
1.90259e-09
-2.40028e-07
1.78635e-09
-2.41693e-07
1.66491e-09
-2.43232e-07
1.53844e-09
-2.44639e-07
1.40685e-09
-2.45909e-07
1.27005e-09
-2.47037e-07
1.12789e-09
-2.48017e-07
9.80675e-10
-2.48845e-07
8.28185e-10
-2.49516e-07
6.7055e-10
-2.50024e-07
5.07914e-10
-2.50364e-07
3.40104e-10
1.67624e-10
-2.50532e-07
7.17751e-11
-4.66936e-11
3.46649e-10
-3.39242e-10
8.3189e-10
-6.59238e-10
1.49811e-09
-9.24881e-10
2.30138e-09
-1.12352e-09
3.19741e-09
-1.25598e-09
4.14352e-09
-1.32744e-09
5.10152e-09
-1.34474e-09
6.0375e-09
-1.31492e-09
6.92167e-09
-1.24422e-09
7.72841e-09
-1.13849e-09
8.43525e-09
-1.00229e-09
9.02278e-09
-8.4009e-10
9.47411e-09
-6.55299e-10
9.77476e-09
-4.50927e-10
9.91197e-09
-2.29745e-10
9.87484e-09
6.1204e-12
9.65392e-09
2.54507e-10
9.24107e-09
5.13595e-10
8.62935e-09
7.8194e-10
7.81271e-09
1.05789e-09
6.78635e-09
1.34059e-09
5.54592e-09
1.62867e-09
4.08797e-09
1.92112e-09
2.40991e-09
2.21731e-09
5.09458e-10
2.51607e-09
-1.61493e-09
2.81691e-09
-3.96427e-09
3.11911e-09
-6.53939e-09
3.42201e-09
-9.34024e-09
3.72519e-09
-1.23668e-08
4.02801e-09
-1.56187e-08
4.33e-09
-1.90948e-08
4.63076e-09
-2.27942e-08
4.9299e-09
-2.67153e-08
5.227e-09
-3.08565e-08
5.52187e-09
-3.52158e-08
5.81417e-09
-3.97912e-08
6.10341e-09
-4.45803e-08
6.38949e-09
-4.95806e-08
6.67225e-09
-5.47894e-08
6.95122e-09
-6.02038e-08
7.22634e-09
-6.5821e-08
7.49751e-09
-7.16377e-08
7.76434e-09
-7.76505e-08
8.02671e-09
-8.38563e-08
8.28462e-09
-9.02515e-08
8.53782e-09
-9.68324e-08
8.78613e-09
-1.03595e-07
9.02947e-09
-1.10537e-07
9.2678e-09
-1.17653e-07
9.50097e-09
-1.24939e-07
9.72876e-09
-1.32392e-07
9.95121e-09
-1.40008e-07
1.01682e-08
-1.47781e-07
1.03796e-08
-1.55709e-07
1.05854e-08
-1.63787e-07
1.07856e-08
-1.72011e-07
1.098e-08
-1.80375e-07
1.11684e-08
-1.88877e-07
1.13509e-08
-1.9751e-07
1.15276e-08
-2.06272e-07
1.16982e-08
-2.15157e-07
1.18625e-08
-2.2416e-07
1.20208e-08
-2.33277e-07
1.2173e-08
-2.42504e-07
1.23187e-08
-2.51835e-07
1.24579e-08
-2.61265e-07
1.25909e-08
-2.7079e-07
1.27174e-08
-2.80405e-07
1.28371e-08
-2.90105e-07
1.29503e-08
-2.99885e-07
1.30567e-08
-3.09739e-07
1.31562e-08
-3.19663e-07
1.32488e-08
-3.2965e-07
1.33343e-08
-3.39697e-07
1.34125e-08
-3.49796e-07
1.34835e-08
-3.59943e-07
1.35469e-08
-3.70132e-07
1.36027e-08
-3.80357e-07
1.36508e-08
-3.90611e-07
1.3691e-08
-4.0089e-07
1.37231e-08
-4.11187e-07
1.37468e-08
-4.21494e-07
1.3762e-08
-4.31807e-07
1.37687e-08
-4.42118e-07
1.37664e-08
-4.5242e-07
1.37549e-08
-4.62707e-07
1.3734e-08
-4.7297e-07
1.37036e-08
-4.83203e-07
1.36632e-08
-4.93398e-07
1.36126e-08
-5.03547e-07
1.35516e-08
-5.13643e-07
1.34797e-08
-5.23675e-07
1.33967e-08
-5.33637e-07
1.33023e-08
-5.43519e-07
1.3196e-08
-5.53312e-07
1.30776e-08
-5.63007e-07
1.29466e-08
-5.72593e-07
1.28028e-08
-5.82062e-07
1.26456e-08
-5.91403e-07
1.24748e-08
-6.00605e-07
1.22899e-08
-6.09657e-07
1.20905e-08
-6.18548e-07
1.18762e-08
-6.27267e-07
1.16466e-08
-6.35802e-07
1.14013e-08
-6.44141e-07
1.11399e-08
-6.52272e-07
1.0862e-08
-6.60182e-07
1.0567e-08
-6.67857e-07
1.02548e-08
-6.75285e-07
9.92484e-09
-6.82452e-07
9.57674e-09
-6.89344e-07
9.21023e-09
-6.95948e-07
8.82474e-09
-7.02248e-07
8.42026e-09
-7.0823e-07
7.99636e-09
-7.1388e-07
7.55261e-09
-7.19183e-07
7.08897e-09
-7.24123e-07
6.605e-09
-7.28685e-07
6.10074e-09
-7.32854e-07
5.57605e-09
-7.36615e-07
5.03075e-09
-7.39952e-07
4.46473e-09
-7.42849e-07
3.87829e-09
-7.45292e-07
3.27125e-09
-7.47265e-07
2.64371e-09
-7.48754e-07
1.99622e-09
-7.49742e-07
1.32847e-09
6.41636e-10
-7.50216e-07
1.72851e-10
-2.19539e-10
6.60421e-10
-8.26838e-10
1.42811e-09
-1.42685e-09
2.43047e-09
-1.92725e-09
3.61155e-09
-2.30452e-09
4.91219e-09
-2.55674e-09
6.27493e-09
-2.69012e-09
7.64572e-09
-2.71544e-09
8.9752e-09
-2.64438e-09
1.02193e-08
-2.48829e-09
1.13386e-08
-2.25768e-09
1.22982e-08
-1.96198e-09
1.30676e-08
-1.60951e-09
1.36197e-08
-1.20734e-09
1.3931e-08
-7.62179e-10
1.39805e-08
-2.7933e-10
1.37504e-08
2.36262e-10
1.32247e-08
7.80028e-10
1.23899e-08
1.3484e-09
1.12339e-08
1.93773e-09
9.74679e-09
2.54504e-09
7.91978e-09
3.16762e-09
5.74553e-09
3.80284e-09
3.2181e-09
4.44867e-09
3.32299e-10
5.10304e-09
-2.91566e-09
5.7641e-09
-6.52889e-09
6.43027e-09
-1.05096e-08
7.09987e-09
-1.48593e-08
7.7717e-09
-1.95785e-08
8.44448e-09
-2.46675e-08
9.11698e-09
-3.01257e-08
9.78822e-09
-3.5952e-08
1.04571e-08
-4.21449e-08
1.11228e-08
-4.87023e-08
1.17845e-08
-5.56217e-08
1.24413e-08
-6.29003e-08
1.30927e-08
-7.05348e-08
1.37379e-08
-7.85216e-08
1.43763e-08
-8.68567e-08
1.50073e-08
-9.55359e-08
1.56305e-08
-1.04555e-07
1.62453e-08
-1.13909e-07
1.68512e-08
-1.23592e-07
1.74479e-08
-1.336e-07
1.8035e-08
-1.43928e-07
1.86121e-08
-1.54569e-07
1.91789e-08
-1.65518e-07
1.9735e-08
-1.76768e-07
2.02801e-08
-1.88315e-07
2.08141e-08
-2.0015e-07
2.13366e-08
-2.12269e-07
2.18474e-08
-2.24664e-07
2.23463e-08
-2.37329e-07
2.28332e-08
-2.50257e-07
2.33076e-08
-2.63441e-07
2.37696e-08
-2.76875e-07
2.42188e-08
-2.9055e-07
2.46552e-08
-3.0446e-07
2.50785e-08
-3.18598e-07
2.54886e-08
-3.32955e-07
2.58854e-08
-3.47526e-07
2.62687e-08
-3.62301e-07
2.66381e-08
-3.77274e-07
2.69937e-08
-3.92437e-07
2.73356e-08
-4.07781e-07
2.76632e-08
-4.233e-07
2.79764e-08
-4.38984e-07
2.82753e-08
-4.54826e-07
2.85596e-08
-4.70818e-07
2.8829e-08
-4.86951e-07
2.90833e-08
-5.03217e-07
2.93226e-08
-5.19607e-07
2.95463e-08
-5.36113e-07
2.97543e-08
-5.52725e-07
2.99464e-08
-5.69435e-07
3.01222e-08
-5.86233e-07
3.02815e-08
-6.0311e-07
3.0424e-08
-6.20056e-07
3.05492e-08
-6.37062e-07
3.0657e-08
-6.54118e-07
3.07469e-08
-6.71214e-07
3.08186e-08
-6.88338e-07
3.08715e-08
-7.05482e-07
3.09052e-08
-7.22632e-07
3.09194e-08
-7.3978e-07
3.09136e-08
-7.56912e-07
3.08871e-08
-7.74017e-07
3.08394e-08
-7.91084e-07
3.077e-08
-8.08099e-07
3.06783e-08
-8.2505e-07
3.05635e-08
-8.41923e-07
3.04252e-08
-8.58706e-07
3.02626e-08
-8.75384e-07
3.00748e-08
-8.91943e-07
2.98612e-08
-9.08368e-07
2.9621e-08
-9.24644e-07
2.93535e-08
-9.40755e-07
2.90578e-08
-9.56685e-07
2.87331e-08
-9.72418e-07
2.83783e-08
-9.87936e-07
2.79929e-08
-1.00322e-06
2.75759e-08
-1.01826e-06
2.71262e-08
-1.03303e-06
2.66431e-08
-1.0475e-06
2.61257e-08
-1.06168e-06
2.5573e-08
-1.07552e-06
2.49841e-08
-1.08902e-06
2.43581e-08
-1.10214e-06
2.36941e-08
-1.11488e-06
2.29912e-08
-1.1272e-06
2.22486e-08
-1.13909e-06
2.14653e-08
-1.15052e-06
2.06408e-08
-1.16147e-06
1.97738e-08
-1.17192e-06
1.88641e-08
-1.18183e-06
1.79109e-08
-1.19119e-06
1.69134e-08
-1.19997e-06
1.58713e-08
-1.20815e-06
1.47839e-08
-1.2157e-06
1.3651e-08
-1.2226e-06
1.24724e-08
-1.22882e-06
1.12477e-08
-1.23433e-06
9.97684e-09
-1.23911e-06
8.66005e-09
-1.24314e-06
7.29751e-09
-1.24638e-06
5.88919e-09
-1.24882e-06
4.43612e-09
-1.25043e-06
2.93797e-09
1.39668e-09
-1.25119e-06
2.57421e-10
-4.76998e-10
9.23686e-10
-1.49315e-09
1.92591e-09
-2.42915e-09
3.19655e-09
-3.19786e-09
4.66568e-09
-3.77369e-09
6.26245e-09
-4.1535e-09
7.91799e-09
-4.3457e-09
9.56707e-09
-4.36456e-09
1.1149e-08
-4.22633e-09
1.26083e-08
-3.94761e-09
1.38947e-08
-3.54411e-09
1.49632e-08
-3.0305e-09
1.57733e-08
-2.41956e-09
1.62892e-08
-1.72323e-09
1.64788e-08
-9.51865e-10
1.63142e-08
-1.14627e-10
1.57705e-08
7.80044e-10
1.48257e-08
1.72496e-09
1.34606e-08
2.71338e-09
1.16589e-08
3.73947e-09
9.40594e-09
4.79807e-09
6.68923e-09
5.88424e-09
3.49836e-09
6.99377e-09
-1.75814e-10
8.1228e-09
-4.34048e-09
9.26765e-09
-9.00168e-09
1.04253e-08
-1.41642e-08
1.15926e-08
-1.98314e-08
1.27671e-08
-2.60058e-08
1.39462e-08
-3.2689e-08
1.51277e-08
-3.98815e-08
1.63095e-08
-4.7583e-08
1.74897e-08
-5.57925e-08
1.86666e-08
-6.45081e-08
1.98384e-08
-7.37274e-08
2.10038e-08
-8.34473e-08
2.21613e-08
-9.36642e-08
2.33096e-08
-1.04374e-07
2.44476e-08
-1.15572e-07
2.5574e-08
-1.27252e-07
2.6688e-08
-1.3941e-07
2.77885e-08
-1.5204e-07
2.88747e-08
-1.65134e-07
2.99457e-08
-1.78687e-07
3.10007e-08
-1.92691e-07
3.2039e-08
-2.07139e-07
3.306e-08
-2.22023e-07
3.4063e-08
-2.37335e-07
3.50475e-08
-2.53068e-07
3.60129e-08
-2.69213e-07
3.69588e-08
-2.85761e-07
3.78846e-08
-3.02703e-07
3.87899e-08
-3.20031e-07
3.96744e-08
-3.37736e-07
4.05376e-08
-3.55807e-07
4.13791e-08
-3.74236e-07
4.21985e-08
-3.93013e-07
4.29956e-08
-4.12128e-07
4.377e-08
-4.31571e-07
4.45213e-08
-4.51331e-07
4.52493e-08
-4.714e-07
4.59538e-08
-4.91766e-07
4.66344e-08
-5.12418e-07
4.72906e-08
-5.33347e-07
4.79224e-08
-5.54541e-07
4.85296e-08
-5.75989e-07
4.91117e-08
-5.97681e-07
4.96682e-08
-6.19605e-07
5.01993e-08
-6.4175e-07
5.07044e-08
-6.64104e-07
5.1183e-08
-6.86656e-07
5.1635e-08
-7.09393e-07
5.206e-08
-7.32304e-07
5.24574e-08
-7.55377e-07
5.28269e-08
-7.78598e-07
5.3168e-08
-8.01956e-07
5.34802e-08
-8.25438e-07
5.3763e-08
-8.49029e-07
5.40157e-08
-8.72718e-07
5.42378e-08
-8.9649e-07
5.44287e-08
-9.20331e-07
5.45879e-08
-9.44227e-07
5.47144e-08
-9.68163e-07
5.48076e-08
-9.92124e-07
5.48667e-08
-1.0161e-06
5.48909e-08
-1.04006e-06
5.48793e-08
-1.06401e-06
5.4831e-08
-1.08791e-06
5.47449e-08
-1.11176e-06
5.46201e-08
-1.13554e-06
5.44556e-08
-1.15922e-06
5.425e-08
-1.1828e-06
5.40024e-08
-1.20625e-06
5.37115e-08
-1.22955e-06
5.33759e-08
-1.25268e-06
5.29944e-08
-1.27563e-06
5.25654e-08
-1.29836e-06
5.20879e-08
-1.32087e-06
5.15601e-08
-1.34311e-06
5.09809e-08
-1.36508e-06
5.03483e-08
-1.38675e-06
4.96612e-08
-1.40809e-06
4.89179e-08
-1.42908e-06
4.81167e-08
-1.4497e-06
4.72561e-08
-1.46991e-06
4.63344e-08
-1.48968e-06
4.53502e-08
-1.509e-06
4.43017e-08
-1.52783e-06
4.31875e-08
-1.54614e-06
4.20058e-08
-1.56391e-06
4.07552e-08
-1.58109e-06
3.94341e-08
-1.59767e-06
3.80411e-08
-1.6136e-06
3.65748e-08
-1.62886e-06
3.50336e-08
-1.64341e-06
3.34166e-08
-1.65723e-06
3.17225e-08
-1.67026e-06
2.99501e-08
-1.68249e-06
2.80986e-08
-1.69387e-06
2.61672e-08
-1.70438e-06
2.41552e-08
-1.71397e-06
2.20623e-08
-1.72261e-06
1.9888e-08
-1.73026e-06
1.76321e-08
-1.7369e-06
1.52949e-08
-1.74248e-06
1.28769e-08
-1.74697e-06
1.0378e-08
-1.75033e-06
7.80002e-09
-1.75253e-06
5.14267e-09
2.40864e-09
-1.75355e-06
3.18551e-10
-7.95484e-10
1.12186e-09
-2.29655e-09
2.30285e-09
-3.61012e-09
3.7721e-09
-4.66713e-09
5.44493e-09
-5.44652e-09
7.23985e-09
-5.94837e-09
9.0785e-09
-6.18438e-09
1.08868e-08
-6.17284e-09
1.25953e-08
-5.93483e-09
1.41398e-08
-5.49199e-09
1.54613e-08
-4.8656e-09
1.65061e-08
-4.07527e-09
1.72258e-08
-3.13929e-09
1.75768e-08
-2.07421e-09
1.75198e-08
-8.94872e-10
1.70199e-08
3.85127e-10
1.60462e-08
1.75384e-09
1.45708e-08
3.20019e-09
1.25699e-08
4.71435e-09
1.00217e-08
6.28768e-09
6.90777e-09
7.91193e-09
3.21199e-09
9.58006e-09
-1.07962e-09
1.12854e-08
-5.97886e-09
1.3022e-08
-1.14956e-08
1.47845e-08
-1.76381e-08
1.65678e-08
-2.44128e-08
1.83673e-08
-3.18247e-08
2.01791e-08
-3.98776e-08
2.1999e-08
-4.85738e-08
2.38238e-08
-5.79145e-08
2.56502e-08
-6.78999e-08
2.74751e-08
-7.85292e-08
2.92958e-08
-8.98006e-08
3.11098e-08
-1.01711e-07
3.29145e-08
-1.14258e-07
3.47079e-08
-1.27436e-07
3.64879e-08
-1.41241e-07
3.82526e-08
-1.55667e-07
4.00001e-08
-1.70708e-07
4.1729e-08
-1.86357e-07
4.34376e-08
-2.02607e-07
4.51246e-08
-2.1945e-07
4.67886e-08
-2.36878e-07
4.84283e-08
-2.54882e-07
5.00427e-08
-2.73452e-07
5.16306e-08
-2.9258e-07
5.3191e-08
-3.12256e-07
5.47231e-08
-3.32469e-07
5.62259e-08
-3.53209e-07
5.76986e-08
-3.74465e-07
5.91406e-08
-3.96226e-07
6.0551e-08
-4.18481e-07
6.19291e-08
-4.41217e-07
6.32744e-08
-4.64424e-07
6.45862e-08
-4.8809e-07
6.58638e-08
-5.12201e-07
6.71069e-08
-5.36746e-07
6.83147e-08
-5.61711e-07
6.94869e-08
-5.87085e-07
7.06228e-08
-6.12853e-07
7.17221e-08
-6.39003e-07
7.27842e-08
-6.65521e-07
7.38087e-08
-6.92394e-07
7.47951e-08
-7.19607e-07
7.5743e-08
-7.47147e-07
7.66519e-08
-7.75e-07
7.75211e-08
-8.03151e-07
7.83503e-08
-8.31586e-07
7.9139e-08
-8.60289e-07
7.98865e-08
-8.89247e-07
8.05923e-08
-9.18443e-07
8.12559e-08
-9.47862e-07
8.18764e-08
-9.77488e-07
8.24531e-08
-1.00731e-06
8.29856e-08
-1.0373e-06
8.34727e-08
-1.06745e-06
8.39138e-08
-1.09774e-06
8.43079e-08
-1.12816e-06
8.46541e-08
-1.15868e-06
8.49514e-08
-1.18929e-06
8.51989e-08
-1.21997e-06
8.53954e-08
-1.2507e-06
8.55396e-08
-1.28147e-06
8.56306e-08
-1.31224e-06
8.56667e-08
-1.34301e-06
8.56468e-08
-1.37375e-06
8.55694e-08
-1.40444e-06
8.54328e-08
-1.43505e-06
8.52357e-08
-1.46557e-06
8.49763e-08
-1.49598e-06
8.46527e-08
-1.52624e-06
8.42632e-08
-1.55633e-06
8.38059e-08
-1.58623e-06
8.32788e-08
-1.61592e-06
8.26798e-08
-1.64536e-06
8.20066e-08
-1.67453e-06
8.12574e-08
-1.7034e-06
8.04298e-08
-1.73194e-06
7.95215e-08
-1.76012e-06
7.85301e-08
-1.78792e-06
7.74534e-08
-1.81529e-06
7.62889e-08
-1.8422e-06
7.50341e-08
-1.86863e-06
7.36865e-08
-1.89454e-06
7.22436e-08
-1.9199e-06
7.07031e-08
-1.94466e-06
6.90624e-08
-1.96879e-06
6.73191e-08
-1.99225e-06
6.54706e-08
-2.01501e-06
6.35147e-08
-2.03703e-06
6.14491e-08
-2.05826e-06
5.92712e-08
-2.07866e-06
5.69792e-08
-2.0982e-06
5.45707e-08
-2.11683e-06
5.20441e-08
-2.1345e-06
4.93974e-08
-2.15118e-06
4.66289e-08
-2.16682e-06
4.37374e-08
-2.18137e-06
4.07216e-08
-2.1948e-06
3.75804e-08
-2.20705e-06
3.43133e-08
-2.21808e-06
3.09197e-08
-2.22785e-06
2.73995e-08
-2.23631e-06
2.37528e-08
-2.24341e-06
1.99804e-08
-2.24911e-06
1.60825e-08
-2.25338e-06
1.20615e-08
-2.25615e-06
7.91766e-09
3.65426e-09
-2.2574e-06
3.58711e-10
-1.15419e-09
1.25518e-09
-3.1929e-09
2.55657e-09
-4.91154e-09
4.15431e-09
-6.26488e-09
5.94999e-09
-7.24215e-09
7.85185e-09
-7.85021e-09
9.77328e-09
-8.10584e-09
1.16328e-08
-8.0323e-09
1.33537e-08
-7.65572e-09
1.48647e-08
-7.00312e-09
1.61e-08
-6.10083e-09
1.69988e-08
-4.97407e-09
1.75059e-08
-3.64638e-09
1.7571e-08
-2.1392e-09
1.71486e-08
-4.72461e-10
1.61978e-08
1.33598e-09
1.46819e-08
3.26974e-09
1.25681e-08
5.31392e-09
9.82731e-09
7.45521e-09
6.43366e-09
9.68122e-09
2.36462e-09
1.1981e-08
-2.39976e-09
1.43444e-08
-7.87662e-09
1.67622e-08
-1.40806e-08
1.9226e-08
-2.10243e-08
2.17281e-08
-2.87179e-08
2.42614e-08
-3.71702e-08
2.68196e-08
-4.63876e-08
2.93965e-08
-5.63752e-08
3.19867e-08
-6.71365e-08
3.45852e-08
-7.86736e-08
3.71873e-08
-9.09871e-08
3.97887e-08
-1.04077e-07
4.23853e-08
-1.1794e-07
4.49736e-08
-1.32576e-07
4.755e-08
-1.47979e-07
5.01112e-08
-1.64146e-07
5.26545e-08
-1.8107e-07
5.51768e-08
-1.98746e-07
5.76758e-08
-2.17166e-07
6.01489e-08
-2.36322e-07
6.2594e-08
-2.56206e-07
6.50089e-08
-2.76809e-07
6.73918e-08
-2.98122e-07
6.97406e-08
-3.20133e-07
7.20539e-08
-3.42832e-07
7.433e-08
-3.66209e-07
7.65673e-08
-3.9025e-07
7.87646e-08
-4.14945e-07
8.09205e-08
-4.4028e-07
8.30338e-08
-4.66243e-07
8.51034e-08
-4.9282e-07
8.71283e-08
-5.19998e-07
8.91073e-08
-5.47763e-07
9.10394e-08
-5.76101e-07
9.29239e-08
-6.04997e-07
9.47598e-08
-6.34437e-07
9.65462e-08
-6.64404e-07
9.82824e-08
-6.94885e-07
9.99676e-08
-7.25863e-07
1.01601e-07
-7.57323e-07
1.03182e-07
-7.89248e-07
1.04709e-07
-8.21623e-07
1.06183e-07
-8.5443e-07
1.07602e-07
-8.87653e-07
1.08966e-07
-9.21275e-07
1.10274e-07
-9.55278e-07
1.11525e-07
-9.89646e-07
1.12718e-07
-1.02436e-06
1.13853e-07
-1.0594e-06
1.14928e-07
-1.09475e-06
1.15944e-07
-1.1304e-06
1.16899e-07
-1.16631e-06
1.17792e-07
-1.20248e-06
1.18621e-07
-1.23888e-06
1.19387e-07
-1.2755e-06
1.20088e-07
-1.3123e-06
1.20722e-07
-1.34928e-06
1.21288e-07
-1.38641e-06
1.21785e-07
-1.42367e-06
1.22212e-07
-1.46104e-06
1.22566e-07
-1.49849e-06
1.22847e-07
-1.53601e-06
1.23053e-07
-1.57356e-06
1.23182e-07
-1.61112e-06
1.23232e-07
-1.64868e-06
1.23201e-07
-1.68619e-06
1.23086e-07
-1.72365e-06
1.22887e-07
-1.76101e-06
1.226e-07
-1.79826e-06
1.22223e-07
-1.83536e-06
1.21753e-07
-1.87229e-06
1.21189e-07
-1.90901e-06
1.20526e-07
-1.94549e-06
1.19763e-07
-1.98171e-06
1.18897e-07
-2.01762e-06
1.17923e-07
-2.05321e-06
1.1684e-07
-2.08842e-06
1.15644e-07
-2.12323e-06
1.14331e-07
-2.1576e-06
1.129e-07
-2.19149e-06
1.11345e-07
-2.22487e-06
1.09663e-07
-2.25768e-06
1.07852e-07
-2.2899e-06
1.05907e-07
-2.32149e-06
1.03825e-07
-2.35239e-06
1.01603e-07
-2.38256e-06
9.9237e-08
-2.41196e-06
9.67233e-08
-2.44055e-06
9.40584e-08
-2.46828e-06
9.12391e-08
-2.49509e-06
8.82622e-08
-2.52094e-06
8.51241e-08
-2.54579e-06
8.18221e-08
-2.56957e-06
7.83531e-08
-2.59224e-06
7.47143e-08
-2.61374e-06
7.09034e-08
-2.63403e-06
6.69177e-08
-2.65305e-06
6.27555e-08
-2.67075e-06
5.84152e-08
-2.68706e-06
5.38952e-08
-2.70194e-06
4.91946e-08
-2.71533e-06
4.43128e-08
-2.72718e-06
3.92496e-08
-2.73744e-06
3.40051e-08
-2.74604e-06
2.85806e-08
-2.75293e-06
2.29764e-08
-2.75806e-06
1.71957e-08
-2.76139e-06
1.12394e-08
5.11164e-09
-2.76284e-06
3.80734e-10
-1.53498e-09
1.32842e-09
-4.14053e-09
2.69336e-09
-6.27654e-09
4.35153e-09
-7.92301e-09
6.19262e-09
-9.08329e-09
8.11569e-09
-9.77322e-09
1.00267e-08
-1.00169e-08
1.18376e-08
-9.84308e-09
1.34657e-08
-9.28389e-09
1.48341e-08
-8.37143e-09
1.58708e-08
-7.13759e-09
1.65097e-08
-5.61301e-09
1.66897e-08
-3.82634e-09
1.63549e-08
-1.80445e-09
1.54544e-08
4.28074e-10
1.3942e-08
2.84836e-09
1.1776e-08
5.43569e-09
8.91896e-09
8.17102e-09
5.33716e-09
1.1037e-08
1.00078e-09
1.40176e-08
-4.11673e-09
1.70985e-08
-1.00387e-08
2.02664e-08
-1.67854e-08
2.3509e-08
-2.43745e-08
2.68151e-08
-3.28211e-08
3.01746e-08
-4.21376e-08
3.3578e-08
-5.23347e-08
3.70166e-08
-6.34207e-08
4.04824e-08
-7.5402e-08
4.3968e-08
-8.82833e-08
4.74665e-08
-1.02068e-07
5.09716e-08
-1.16757e-07
5.44775e-08
-1.3235e-07
5.79787e-08
-1.48846e-07
6.147e-08
-1.66243e-07
6.49469e-08
-1.84537e-07
6.84049e-08
-2.03722e-07
7.18399e-08
-2.23794e-07
7.52481e-08
-2.44744e-07
7.86259e-08
-2.66565e-07
8.197e-08
-2.89248e-07
8.52774e-08
-3.12784e-07
8.85451e-08
-3.37163e-07
9.17704e-08
-3.62373e-07
9.49508e-08
-3.88403e-07
9.80839e-08
-4.15241e-07
1.01168e-07
-4.42873e-07
1.042e-07
-4.71287e-07
1.07178e-07
-5.00468e-07
1.10101e-07
-5.30402e-07
1.12968e-07
-5.61074e-07
1.15775e-07
-5.92468e-07
1.18523e-07
-6.2457e-07
1.21209e-07
-6.57362e-07
1.23832e-07
-6.90829e-07
1.26391e-07
-7.24953e-07
1.28884e-07
-7.59717e-07
1.3131e-07
-7.95103e-07
1.33669e-07
-8.31094e-07
1.35959e-07
-8.67672e-07
1.38178e-07
-9.04817e-07
1.40327e-07
-9.42511e-07
1.42403e-07
-9.80735e-07
1.44407e-07
-1.01947e-06
1.46337e-07
-1.05869e-06
1.48191e-07
-1.09839e-06
1.49969e-07
-1.13854e-06
1.5167e-07
-1.17911e-06
1.53293e-07
-1.22009e-06
1.54836e-07
-1.26146e-06
1.56299e-07
-1.3032e-06
1.57681e-07
-1.34528e-06
1.58979e-07
-1.38768e-06
1.60193e-07
-1.43038e-06
1.61321e-07
-1.47336e-06
1.62362e-07
-1.51658e-06
1.63314e-07
-1.56004e-06
1.64175e-07
-1.60369e-06
1.64944e-07
-1.64753e-06
1.65619e-07
-1.69151e-06
1.66198e-07
-1.73563e-06
1.66678e-07
-1.77984e-06
1.67058e-07
-1.82412e-06
1.67335e-07
-1.86844e-06
1.67508e-07
-1.91278e-06
1.67572e-07
-1.95711e-06
1.67526e-07
-2.00139e-06
1.67367e-07
-2.0456e-06
1.67091e-07
-2.08969e-06
1.66696e-07
-2.13365e-06
1.66179e-07
-2.17743e-06
1.65535e-07
-2.221e-06
1.64762e-07
-2.26433e-06
1.63855e-07
-2.30738e-06
1.62811e-07
-2.35011e-06
1.61626e-07
-2.39248e-06
1.60295e-07
-2.43445e-06
1.58815e-07
-2.47599e-06
1.57181e-07
-2.51705e-06
1.55388e-07
-2.55758e-06
1.53433e-07
-2.59755e-06
1.51311e-07
-2.6369e-06
1.49017e-07
-2.67559e-06
1.46545e-07
-2.71358e-06
1.43893e-07
-2.75081e-06
1.41054e-07
-2.78723e-06
1.38024e-07
-2.82279e-06
1.34798e-07
-2.85744e-06
1.31372e-07
-2.89112e-06
1.2774e-07
-2.92378e-06
1.23899e-07
-2.95536e-06
1.19844e-07
-2.98581e-06
1.1557e-07
-3.01506e-06
1.11073e-07
-3.04305e-06
1.0635e-07
-3.06974e-06
1.01397e-07
-3.09504e-06
9.62097e-08
-3.11891e-06
9.07858e-08
-3.14128e-06
8.51226e-08
-3.16208e-06
7.92179e-08
-3.18126e-06
7.30697e-08
-3.19874e-06
6.66768e-08
-3.21446e-06
6.00382e-08
-3.22837e-06
5.31542e-08
-3.24039e-06
4.60245e-08
-3.25046e-06
3.86512e-08
-3.25852e-06
3.10346e-08
-3.2645e-06
2.31787e-08
-3.26835e-06
1.50856e-08
6.76011e-09
-3.26999e-06
3.87147e-10
-1.92217e-09
1.34824e-09
-5.10156e-09
2.72347e-09
-7.65168e-09
4.37757e-09
-9.57714e-09
6.19076e-09
-1.08965e-08
8.05427e-09
-1.16367e-08
9.86745e-09
-1.183e-08
1.15366e-08
-1.15123e-08
1.29741e-08
-1.07213e-08
1.40979e-08
-9.49516e-09
1.48315e-08
-7.87118e-09
1.51038e-08
-5.88528e-09
1.4849e-08
-3.57156e-09
1.40065e-08
-9.61916e-10
1.25207e-08
1.91384e-09
1.03409e-08
5.02815e-09
7.421e-09
8.35562e-09
3.7191e-09
1.18729e-08
-8.02295e-10
1.55583e-08
-6.17697e-09
1.93923e-08
-1.2435e-08
2.33565e-08
-1.96029e-08
2.74343e-08
-2.77041e-08
3.16102e-08
-3.67591e-08
3.58701e-08
-4.67852e-08
4.02008e-08
-5.77975e-08
4.45903e-08
-6.98084e-08
4.90275e-08
-8.28279e-08
5.3502e-08
-9.6864e-08
5.80042e-08
-1.11923e-07
6.25252e-08
-1.28008e-07
6.7057e-08
-1.45122e-07
7.15918e-08
-1.63266e-07
7.61225e-08
-1.82439e-07
8.06424e-08
-2.02637e-07
8.51455e-08
-2.23858e-07
8.96259e-08
-2.46096e-07
9.40782e-08
-2.69346e-07
9.84974e-08
-2.93599e-07
1.02879e-07
-3.18847e-07
1.07218e-07
-3.45081e-07
1.11511e-07
-3.7229e-07
1.15754e-07
-4.00463e-07
1.19943e-07
-4.29588e-07
1.24076e-07
-4.59652e-07
1.28148e-07
-4.9064e-07
1.32156e-07
-5.2254e-07
1.36099e-07
-5.55335e-07
1.39974e-07
-5.89011e-07
1.43777e-07
-6.2355e-07
1.47507e-07
-6.58936e-07
1.51162e-07
-6.95152e-07
1.54739e-07
-7.3218e-07
1.58237e-07
-7.70002e-07
1.61653e-07
-8.08598e-07
1.64987e-07
-8.4795e-07
1.68236e-07
-8.88038e-07
1.71398e-07
-9.28841e-07
1.74472e-07
-9.7034e-07
1.77458e-07
-1.01251e-06
1.80352e-07
-1.05534e-06
1.83154e-07
-1.0988e-06
1.85862e-07
-1.14287e-06
1.88476e-07
-1.18752e-06
1.90993e-07
-1.23275e-06
1.93412e-07
-1.27851e-06
1.95732e-07
-1.32479e-06
1.97952e-07
-1.37157e-06
2.00069e-07
-1.41881e-06
2.02083e-07
-1.46651e-06
2.03992e-07
-1.51462e-06
2.05795e-07
-1.56313e-06
2.07488e-07
-1.61201e-06
2.09072e-07
-1.66123e-06
2.10544e-07
-1.71077e-06
2.11901e-07
-1.7606e-06
2.13142e-07
-1.81069e-06
2.14265e-07
-1.86101e-06
2.15267e-07
-1.91154e-06
2.16146e-07
-1.96224e-06
2.16899e-07
-2.01309e-06
2.17523e-07
-2.06404e-06
2.18016e-07
-2.11508e-06
2.18375e-07
-2.16617e-06
2.18596e-07
-2.21727e-06
2.18675e-07
-2.26836e-06
2.18611e-07
-2.31939e-06
2.18398e-07
-2.37033e-06
2.18033e-07
-2.42115e-06
2.17511e-07
-2.4718e-06
2.16829e-07
-2.52224e-06
2.15982e-07
-2.57245e-06
2.14966e-07
-2.62237e-06
2.13774e-07
-2.67196e-06
2.12404e-07
-2.72118e-06
2.10848e-07
-2.76999e-06
2.09103e-07
-2.81834e-06
2.07162e-07
-2.86618e-06
2.0502e-07
-2.91346e-06
2.02671e-07
-2.96014e-06
2.0011e-07
-3.00616e-06
1.9733e-07
-3.05146e-06
1.94326e-07
-3.09601e-06
1.9109e-07
-3.13974e-06
1.87618e-07
-3.18258e-06
1.83903e-07
-3.2245e-06
1.79939e-07
-3.26542e-06
1.75719e-07
-3.30529e-06
1.71238e-07
-3.34404e-06
1.66489e-07
-3.3816e-06
1.61467e-07
-3.41792e-06
1.56166e-07
-3.45293e-06
1.5058e-07
-3.48657e-06
1.44704e-07
-3.51875e-06
1.38533e-07
-3.54941e-06
1.32062e-07
-3.57849e-06
1.25287e-07
-3.60591e-06
1.18204e-07
-3.6316e-06
1.1081e-07
-3.65548e-06
1.03101e-07
-3.67749e-06
9.50755e-08
-3.69754e-06
8.67319e-08
-3.71557e-06
7.8069e-08
-3.7315e-06
6.90868e-08
-3.74526e-06
5.97854e-08
-3.75678e-06
5.01673e-08
-3.76598e-06
4.02333e-08
-3.77279e-06
2.99883e-08
-3.77714e-06
1.94353e-08
8.5803e-09
-3.77896e-06
3.80427e-10
-2.30264e-09
1.32152e-09
-6.04267e-09
2.65824e-09
-8.98844e-09
4.24831e-09
-1.11672e-08
5.96491e-09
-1.26131e-08
7.69291e-09
-1.33646e-08
9.32623e-09
-1.34634e-08
1.07665e-08
-1.29526e-08
1.19217e-08
-1.18764e-08
1.27055e-08
-1.0279e-08
1.30376e-08
-8.20326e-09
1.28429e-08
-5.69055e-09
1.20517e-08
-2.78025e-09
1.05992e-08
4.90543e-10
8.42595e-09
4.08697e-09
5.47742e-09
7.97672e-09
1.70339e-09
1.21296e-08
-2.94147e-09
1.65178e-08
-8.49854e-09
2.11154e-08
-1.5005e-08
2.58987e-08
-2.24941e-08
3.08456e-08
-3.09955e-08
3.59357e-08
-4.05355e-08
4.11502e-08
-5.11371e-08
4.64717e-08
-6.28202e-08
5.1884e-08
-7.5602e-08
5.73721e-08
-8.94968e-08
6.29223e-08
-1.04516e-07
6.85217e-08
-1.20671e-07
7.41583e-08
-1.37966e-07
7.9821e-08
-1.56409e-07
8.54996e-08
-1.76001e-07
9.11843e-08
-1.96745e-07
9.68662e-08
-2.1864e-07
1.02537e-07
-2.41683e-07
1.08189e-07
-2.65871e-07
1.13814e-07
-2.912e-07
1.19407e-07
-3.17661e-07
1.24959e-07
-3.45249e-07
1.30467e-07
-3.73954e-07
1.35923e-07
-4.03765e-07
1.41322e-07
-4.34671e-07
1.46661e-07
-4.66661e-07
1.51933e-07
-4.9972e-07
1.57135e-07
-5.33836e-07
1.62263e-07
-5.68992e-07
1.67313e-07
-6.05173e-07
1.72281e-07
-6.42363e-07
1.77163e-07
-6.80545e-07
1.81958e-07
-7.19699e-07
1.86662e-07
-7.59808e-07
1.91271e-07
-8.00853e-07
1.95784e-07
-8.42813e-07
2.00197e-07
-8.85669e-07
2.04509e-07
-9.29398e-07
2.08717e-07
-9.73981e-07
2.12818e-07
-1.01939e-06
2.16811e-07
-1.06562e-06
2.20694e-07
-1.11262e-06
2.24465e-07
-1.16039e-06
2.28121e-07
-1.2089e-06
2.31662e-07
-1.25812e-06
2.35084e-07
-1.30803e-06
2.38387e-07
-1.35861e-06
2.41568e-07
-1.40982e-06
2.44626e-07
-1.46165e-06
2.47559e-07
-1.51406e-06
2.50365e-07
-1.56704e-06
2.53042e-07
-1.62054e-06
2.55588e-07
-1.67455e-06
2.58002e-07
-1.72904e-06
2.6028e-07
-1.78397e-06
2.62421e-07
-1.83932e-06
2.64423e-07
-1.89506e-06
2.66283e-07
-1.95116e-06
2.67998e-07
-2.00758e-06
2.69566e-07
-2.0643e-06
2.70984e-07
-2.12128e-06
2.72248e-07
-2.17849e-06
2.73357e-07
-2.2359e-06
2.74306e-07
-2.29347e-06
2.75092e-07
-2.35116e-06
2.75712e-07
-2.40895e-06
2.7616e-07
-2.46679e-06
2.76435e-07
-2.52464e-06
2.7653e-07
-2.58247e-06
2.76442e-07
-2.64024e-06
2.76167e-07
-2.69791e-06
2.75698e-07
-2.75543e-06
2.75031e-07
-2.81276e-06
2.7416e-07
-2.86986e-06
2.7308e-07
-2.92668e-06
2.71785e-07
-2.98317e-06
2.70269e-07
-3.03929e-06
2.68525e-07
-3.09499e-06
2.66548e-07
-3.15022e-06
2.6433e-07
-3.20492e-06
2.61864e-07
-3.25904e-06
2.59143e-07
-3.31253e-06
2.56161e-07
-3.36533e-06
2.5291e-07
-3.41738e-06
2.49381e-07
-3.46863e-06
2.45569e-07
-3.519e-06
2.41465e-07
-3.56844e-06
2.37061e-07
-3.61689e-06
2.3235e-07
-3.66428e-06
2.27324e-07
-3.71053e-06
2.21975e-07
-3.75559e-06
2.16296e-07
-3.79938e-06
2.10279e-07
-3.84183e-06
2.03916e-07
-3.88287e-06
1.97202e-07
-3.92242e-06
1.90127e-07
-3.9604e-06
1.82687e-07
-3.99674e-06
1.74874e-07
-4.03136e-06
1.66683e-07
-4.06418e-06
1.58108e-07
-4.09512e-06
1.49145e-07
-4.1241e-06
1.39789e-07
-4.15104e-06
1.30037e-07
-4.17585e-06
1.19886e-07
-4.19845e-06
1.09334e-07
-4.21876e-06
9.83792e-08
-4.2367e-06
8.70225e-08
-4.25218e-06
7.52637e-08
-4.26511e-06
6.31058e-08
-4.27543e-06
5.05505e-08
-4.28305e-06
3.76034e-08
-4.28788e-06
2.42689e-08
1.05543e-08
-4.28985e-06
3.62671e-10
-2.66524e-09
1.25433e-09
-6.93437e-09
2.50879e-09
-1.02429e-08
3.97979e-09
-1.26382e-08
5.53593e-09
-1.41692e-08
7.05742e-09
-1.48862e-08
8.43415e-09
-1.48401e-08
9.56363e-09
-1.4082e-08
1.03502e-08
-1.2663e-08
1.07044e-08
-1.06332e-08
1.05424e-08
-8.04128e-09
9.78594e-09
-4.93401e-09
8.36181e-09
-1.35606e-09
6.20212e-09
2.65018e-09
3.24401e-09
7.0451e-09