/*--------------------------------*- C++ -*----------------------------------*\
| =========                 |                                                 |
| \\      /  F ield         | OpenFOAM: The Open Source CFD Toolbox           |
|  \\    /   O peration     | Version:  2112                                  |
|   \\  /    A nd           | Website:  www.openfoam.com                      |
|    \\/     M anipulation  |                                                 |
\*---------------------------------------------------------------------------*/
FoamFile
{
    version     2.0;
    format      ascii;
    arch        "LSB;label=32;scalar=64";
    class       volVectorField;
    location    "5.94";
    object      U;
}
// * * * * * * * * * * * * * * * * * * * * * * * * * * * * * * * * * * * * * //

dimensions      [0 1 -1 0 0 0 0];

internalField   nonuniform List<vector> 
66564
(
(-6.51564e-08 1.01163e-07 0)
(-4.90518e-08 -1.74116e-08 0)
(4.07934e-07 -1.89181e-07 0)
(1.21658e-06 -3.11619e-07 0)
(2.31364e-06 -3.9564e-07 0)
(3.59531e-06 -4.46956e-07 0)
(4.99014e-06 -4.72374e-07 0)
(6.43166e-06 -4.78162e-07 0)
(7.8675e-06 -4.66898e-07 0)
(9.25188e-06 -4.44475e-07 0)
(1.05473e-05 -4.10752e-07 0)
(1.17214e-05 -3.70013e-07 0)
(1.27469e-05 -3.2249e-07 0)
(1.36018e-05 -2.69743e-07 0)
(1.4265e-05 -2.13155e-07 0)
(1.47206e-05 -1.51813e-07 0)
(1.49532e-05 -8.80889e-08 0)
(1.49506e-05 -2.23805e-08 0)
(1.47033e-05 4.58115e-08 0)
(1.42006e-05 1.148e-07 0)
(1.3436e-05 1.85205e-07 0)
(1.24032e-05 2.56448e-07 0)
(1.1096e-05 3.27274e-07 0)
(9.51164e-06 3.98302e-07 0)
(7.64604e-06 4.69566e-07 0)
(5.49597e-06 5.40466e-07 0)
(3.0606e-06 6.11499e-07 0)
(3.38208e-07 6.82485e-07 0)
(-2.67237e-06 7.52297e-07 0)
(-5.97023e-06 8.21275e-07 0)
(-9.55549e-06 8.89368e-07 0)
(-1.34279e-05 9.55788e-07 0)
(-1.75852e-05 1.02098e-06 0)
(-2.2026e-05 1.08569e-06 0)
(-2.67491e-05 1.14944e-06 0)
(-3.17519e-05 1.21184e-06 0)
(-3.70312e-05 1.27349e-06 0)
(-4.25852e-05 1.33356e-06 0)
(-4.84106e-05 1.39165e-06 0)
(-5.45034e-05 1.44878e-06 0)
(-6.08608e-05 1.50431e-06 0)
(-6.74792e-05 1.55785e-06 0)
(-7.43541e-05 1.61003e-06 0)
(-8.14816e-05 1.66101e-06 0)
(-8.88581e-05 1.71034e-06 0)
(-9.64787e-05 1.75834e-06 0)
(-0.000104339 1.80513e-06 0)
(-0.000112435 1.85022e-06 0)
(-0.000120761 1.89346e-06 0)
(-0.000129312 1.9353e-06 0)
(-0.000138085 1.97556e-06 0)
(-0.000147073 2.01387e-06 0)
(-0.000156272 2.0505e-06 0)
(-0.000165677 2.08576e-06 0)
(-0.000175282 2.11969e-06 0)
(-0.000185082 2.15212e-06 0)
(-0.000195072 2.18313e-06 0)
(-0.000205246 2.21272e-06 0)
(-0.000215599 2.24073e-06 0)
(-0.000226125 2.26725e-06 0)
(-0.000236819 2.29223e-06 0)
(-0.000247676 2.31531e-06 0)
(-0.000258688 2.33683e-06 0)
(-0.000269851 2.35725e-06 0)
(-0.000281159 2.37598e-06 0)
(-0.000292606 2.39289e-06 0)
(-0.000304185 2.40869e-06 0)
(-0.000315892 2.42335e-06 0)
(-0.00032772 2.43645e-06 0)
(-0.000339662 2.44831e-06 0)
(-0.000351713 2.45882e-06 0)
(-0.000363867 2.46739e-06 0)
(-0.000376117 2.47455e-06 0)
(-0.000388456 2.48068e-06 0)
(-0.000400878 2.48511e-06 0)
(-0.000413377 2.48783e-06 0)
(-0.000425946 2.48928e-06 0)
(-0.000438577 2.48934e-06 0)
(-0.000451264 2.48802e-06 0)
(-0.000464 2.48529e-06 0)
(-0.000476777 2.48126e-06 0)
(-0.000489588 2.47576e-06 0)
(-0.000502425 2.46864e-06 0)
(-0.000515281 2.46002e-06 0)
(-0.000528148 2.44993e-06 0)
(-0.000541017 2.43839e-06 0)
(-0.00055388 2.42506e-06 0)
(-0.000566728 2.41013e-06 0)
(-0.000579553 2.3937e-06 0)
(-0.000592345 2.37556e-06 0)
(-0.000605095 2.35589e-06 0)
(-0.000617794 2.33474e-06 0)
(-0.000630432 2.3117e-06 0)
(-0.000642998 2.28699e-06 0)
(-0.000655482 2.26057e-06 0)
(-0.000667873 2.23248e-06 0)
(-0.00068016 2.20246e-06 0)
(-0.000692331 2.17051e-06 0)
(-0.000704375 2.13682e-06 0)
(-0.000716279 2.10106e-06 0)
(-0.000728032 2.06337e-06 0)
(-0.000739619 2.0235e-06 0)
(-0.000751027 1.98171e-06 0)
(-0.000762243 1.9379e-06 0)
(-0.000773253 1.89193e-06 0)
(-0.000784042 1.8437e-06 0)
(-0.000794596 1.79331e-06 0)
(-0.000804898 1.74093e-06 0)
(-0.000814934 1.68627e-06 0)
(-0.000824687 1.62937e-06 0)
(-0.000834141 1.56995e-06 0)
(-0.000843279 1.50833e-06 0)
(-0.000852085 1.44451e-06 0)
(-0.000860539 1.37813e-06 0)
(-0.000868626 1.30946e-06 0)
(-0.000876326 1.23829e-06 0)
(-0.00088362 1.16474e-06 0)
(-0.000890492 1.0889e-06 0)
(-0.000896921 1.01036e-06 0)
(-0.000902889 9.29731e-07 0)
(-0.000908377 8.46786e-07 0)
(-0.000913364 7.61485e-07 0)
(-0.000917832 6.73678e-07 0)
(-0.000921762 5.83877e-07 0)
(-0.000925133 4.91637e-07 0)
(-0.000927927 3.97419e-07 0)
(-0.000930125 3.0108e-07 0)
(-0.000931708 2.02678e-07 0)
(-0.000932657 1.02643e-07 0)
(6.04468e-08 3.78738e-08 0)
(6.02852e-07 -5.49739e-07 0)
(2.00967e-06 -1.26538e-06 0)
(4.17996e-06 -1.83724e-06 0)
(6.93865e-06 -2.25232e-06 0)
(1.01246e-05 -2.51844e-06 0)
(1.35704e-05 -2.65533e-06 0)
(1.71288e-05 -2.68044e-06 0)
(2.06637e-05 -2.61402e-06 0)
(2.40588e-05 -2.46967e-06 0)
(2.72111e-05 -2.26157e-06 0)
(3.00318e-05 -2.00015e-06 0)
(3.24449e-05 -1.69351e-06 0)
(3.43814e-05 -1.35145e-06 0)
(3.57862e-05 -9.77484e-07 0)
(3.66066e-05 -5.78347e-07 0)
(3.68e-05 -1.58556e-07 0)
(3.63301e-05 2.78793e-07 0)
(3.51622e-05 7.2863e-07 0)
(3.32702e-05 1.18937e-06 0)
(3.06298e-05 1.65841e-06 0)
(2.72201e-05 2.13243e-06 0)
(2.30257e-05 2.61056e-06 0)
(1.80313e-05 3.09046e-06 0)
(1.22255e-05 3.57012e-06 0)
(5.60053e-06 4.04915e-06 0)
(-1.85165e-06 4.52596e-06 0)
(-1.01358e-05 4.99954e-06 0)
(-1.92544e-05 5.46888e-06 0)
(-2.92095e-05 5.93359e-06 0)
(-4.00013e-05 6.39189e-06 0)
(-5.16279e-05 6.84328e-06 0)
(-6.40873e-05 7.28791e-06 0)
(-7.7376e-05 7.72433e-06 0)
(-9.14884e-05 8.15261e-06 0)
(-0.000106419 8.57281e-06 0)
(-0.000122162 8.98402e-06 0)
(-0.000138708 9.38557e-06 0)
(-0.000156051 9.77767e-06 0)
(-0.00017418 1.01602e-05 0)
(-0.000193087 1.05324e-05 0)
(-0.000212761 1.08942e-05 0)
(-0.000233191 1.1246e-05 0)
(-0.000254365 1.15869e-05 0)
(-0.000276273 1.19169e-05 0)
(-0.000298901 1.22368e-05 0)
(-0.000322237 1.25459e-05 0)
(-0.000346268 1.28439e-05 0)
(-0.00037098 1.31312e-05 0)
(-0.000396359 1.34079e-05 0)
(-0.000422392 1.36737e-05 0)
(-0.000449064 1.39282e-05 0)
(-0.00047636 1.41721e-05 0)
(-0.000504265 1.44053e-05 0)
(-0.000532765 1.46276e-05 0)
(-0.000561843 1.48391e-05 0)
(-0.000591484 1.50404e-05 0)
(-0.000621672 1.5231e-05 0)
(-0.000652391 1.54107e-05 0)
(-0.000683625 1.55801e-05 0)
(-0.000715358 1.57394e-05 0)
(-0.000747571 1.58881e-05 0)
(-0.00078025 1.60262e-05 0)
(-0.000813376 1.61543e-05 0)
(-0.000846934 1.62726e-05 0)
(-0.000880903 1.63804e-05 0)
(-0.000915269 1.64777e-05 0)
(-0.000950013 1.65656e-05 0)
(-0.000985117 1.66437e-05 0)
(-0.00102056 1.67117e-05 0)
(-0.00105633 1.67701e-05 0)
(-0.0010924 1.68186e-05 0)
(-0.00112876 1.68573e-05 0)
(-0.00116539 1.68863e-05 0)
(-0.00120226 1.69056e-05 0)
(-0.00123936 1.6915e-05 0)
(-0.00127667 1.69148e-05 0)
(-0.00131416 1.69048e-05 0)
(-0.00135182 1.68849e-05 0)
(-0.00138963 1.68551e-05 0)
(-0.00142755 1.68158e-05 0)
(-0.00146558 1.67666e-05 0)
(-0.00150368 1.6707e-05 0)
(-0.00154184 1.66373e-05 0)
(-0.00158002 1.65578e-05 0)
(-0.00161822 1.64682e-05 0)
(-0.00165639 1.63679e-05 0)
(-0.00169452 1.6257e-05 0)
(-0.00173258 1.61359e-05 0)
(-0.00177053 1.60039e-05 0)
(-0.00180837 1.58608e-05 0)
(-0.00184604 1.57068e-05 0)
(-0.00188353 1.55417e-05 0)
(-0.00192081 1.53651e-05 0)
(-0.00195784 1.51767e-05 0)
(-0.00199459 1.49767e-05 0)
(-0.00203103 1.47647e-05 0)
(-0.00206712 1.45403e-05 0)
(-0.00210283 1.43037e-05 0)
(-0.00213812 1.40543e-05 0)
(-0.00217296 1.37921e-05 0)
(-0.0022073 1.35168e-05 0)
(-0.00224111 1.32281e-05 0)
(-0.00227434 1.2926e-05 0)
(-0.00230696 1.26102e-05 0)
(-0.00233892 1.22804e-05 0)
(-0.00237017 1.19363e-05 0)
(-0.00240068 1.15781e-05 0)
(-0.00243039 1.12054e-05 0)
(-0.00245926 1.0818e-05 0)
(-0.00248723 1.04157e-05 0)
(-0.00251427 9.99846e-06 0)
(-0.00254031 9.56633e-06 0)
(-0.00256531 9.11881e-06 0)
(-0.00258922 8.65618e-06 0)
(-0.00261197 8.17837e-06 0)
(-0.00263352 7.68515e-06 0)
(-0.00265381 7.17685e-06 0)
(-0.00267279 6.65313e-06 0)
(-0.0026904 6.11443e-06 0)
(-0.00270658 5.56102e-06 0)
(-0.00272127 4.99284e-06 0)
(-0.00273443 4.40993e-06 0)
(-0.00274598 3.81307e-06 0)
(-0.00275588 3.20228e-06 0)
(-0.00276407 2.5779e-06 0)
(-0.00277049 1.94094e-06 0)
(-0.00277509 1.29098e-06 0)
(-0.00277781 6.29895e-07 0)
(1.98848e-07 -4.15758e-07 0)
(1.27364e-06 -1.983e-06 0)
(3.60907e-06 -3.59754e-06 0)
(6.92587e-06 -4.93553e-06 0)
(1.10014e-05 -5.92579e-06 0)
(1.56232e-05 -6.57342e-06 0)
(2.05795e-05 -6.90161e-06 0)
(2.56597e-05 -6.94863e-06 0)
(3.06747e-05 -6.75145e-06 0)
(3.54517e-05 -6.34448e-06 0)
(3.98369e-05 -5.76103e-06 0)
(4.3695e-05 -5.02454e-06 0)
(4.69034e-05 -4.16284e-06 0)
(4.93595e-05 -3.19216e-06 0)
(5.09687e-05 -2.13203e-06 0)
(5.16492e-05 -9.97432e-07 0)
(5.13312e-05 2.01213e-07 0)
(4.99508e-05 1.44945e-06 0)
(4.74556e-05 2.7391e-06 0)
(4.37982e-05 4.06219e-06 0)
(3.89373e-05 5.40869e-06 0)
(3.28399e-05 6.77493e-06 0)
(2.54758e-05 8.15338e-06 0)
(1.68201e-05 9.5383e-06 0)
(6.85374e-06 1.09268e-05 0)
(-4.4407e-06 1.23132e-05 0)
(-1.70758e-05 1.36941e-05 0)
(-3.10608e-05 1.50667e-05 0)
(-4.64027e-05 1.64284e-05 0)
(-6.31055e-05 1.77757e-05 0)
(-8.11705e-05 1.91074e-05 0)
(-0.000100597 2.04209e-05 0)
(-0.000121381 2.17134e-05 0)
(-0.000143519 2.29846e-05 0)
(-0.000167004 2.42324e-05 0)
(-0.000191827 2.54554e-05 0)
(-0.000217979 2.66529e-05 0)
(-0.000245448 2.78237e-05 0)
(-0.000274221 2.89668e-05 0)
(-0.000304285 3.00815e-05 0)
(-0.000335624 3.11674e-05 0)
(-0.000368223 3.22235e-05 0)
(-0.000402064 3.32494e-05 0)
(-0.000437129 3.42448e-05 0)
(-0.0004734 3.52091e-05 0)
(-0.000510857 3.61424e-05 0)
(-0.00054948 3.70443e-05 0)
(-0.000589247 3.79146e-05 0)
(-0.000630136 3.87531e-05 0)
(-0.000672126 3.95602e-05 0)
(-0.000715194 4.03356e-05 0)
(-0.000759315 4.10791e-05 0)
(-0.000804468 4.17909e-05 0)
(-0.000850626 4.24713e-05 0)
(-0.000897765 4.31199e-05 0)
(-0.000945861 4.3737e-05 0)
(-0.000994888 4.43231e-05 0)
(-0.00104482 4.4878e-05 0)
(-0.00109563 4.54015e-05 0)
(-0.00114729 4.58944e-05 0)
(-0.00119977 4.6357e-05 0)
(-0.00125305 4.67887e-05 0)
(-0.00130711 4.71898e-05 0)
(-0.0013619 4.75611e-05 0)
(-0.0014174 4.7903e-05 0)
(-0.00147359 4.82146e-05 0)
(-0.00153044 4.84964e-05 0)
(-0.00158791 4.87492e-05 0)
(-0.00164598 4.8973e-05 0)
(-0.00170461 4.91674e-05 0)
(-0.00176378 4.9333e-05 0)
(-0.00182346 4.94696e-05 0)
(-0.00188361 4.95774e-05 0)
(-0.00194419 4.96567e-05 0)
(-0.00200519 4.97069e-05 0)
(-0.00206657 4.97284e-05 0)
(-0.00212828 4.97214e-05 0)
(-0.00219031 4.96855e-05 0)
(-0.00225261 4.96204e-05 0)
(-0.00231514 4.95266e-05 0)
(-0.00237788 4.94039e-05 0)
(-0.00244079 4.92518e-05 0)
(-0.00250382 4.90702e-05 0)
(-0.00256693 4.88589e-05 0)
(-0.0026301 4.86179e-05 0)
(-0.00269327 4.83469e-05 0)
(-0.00275641 4.80453e-05 0)
(-0.00281948 4.77127e-05 0)
(-0.00288242 4.73491e-05 0)
(-0.00294519 4.6954e-05 0)
(-0.00300776 4.65268e-05 0)
(-0.00307006 4.60673e-05 0)
(-0.00313205 4.55747e-05 0)
(-0.00319369 4.50488e-05 0)
(-0.00325491 4.44887e-05 0)
(-0.00331567 4.3894e-05 0)
(-0.0033759 4.32643e-05 0)
(-0.00343556 4.25988e-05 0)
(-0.00349458 4.18971e-05 0)
(-0.00355291 4.11581e-05 0)
(-0.00361047 4.03818e-05 0)
(-0.00366722 3.95673e-05 0)
(-0.00372307 3.8714e-05 0)
(-0.00377797 3.78212e-05 0)
(-0.00383185 3.68885e-05 0)
(-0.00388463 3.59154e-05 0)
(-0.00393624 3.4901e-05 0)
(-0.00398661 3.38453e-05 0)
(-0.00403565 3.27472e-05 0)
(-0.0040833 3.16067e-05 0)
(-0.00412947 3.04231e-05 0)
(-0.00417408 2.91963e-05 0)
(-0.00421704 2.79259e-05 0)
(-0.00425828 2.66111e-05 0)
(-0.00429769 2.52527e-05 0)
(-0.00433521 2.38502e-05 0)
(-0.00437072 2.24035e-05 0)
(-0.00440416 2.09129e-05 0)
(-0.00443541 1.93782e-05 0)
(-0.0044644 1.78002e-05 0)
(-0.00449102 1.61795e-05 0)
(-0.00451519 1.45162e-05 0)
(-0.00453681 1.2811e-05 0)
(-0.00455579 1.10654e-05 0)
(-0.00457203 9.28004e-06 0)
(-0.00458544 7.45582e-06 0)
(-0.00459593 5.59475e-06 0)
(-0.0046034 3.69717e-06 0)
(-0.00460778 1.76665e-06 0)
(3.1319e-07 -1.24417e-06 0)
(1.83662e-06 -4.16241e-06 0)
(4.93465e-06 -6.92047e-06 0)
(9.17899e-06 -9.18184e-06 0)
(1.42631e-05 -1.08577e-05 0)
(1.9942e-05 -1.19428e-05 0)
(2.59597e-05 -1.24735e-05 0)
(3.207e-05 -1.25025e-05 0)
(3.80404e-05 -1.20871e-05 0)
(4.36576e-05 -1.12858e-05 0)
(4.87298e-05 -1.0148e-05 0)
(5.30805e-05 -8.72479e-06 0)
(5.6555e-05 -7.05406e-06 0)
(5.90128e-05 -5.1739e-06 0)
(6.03304e-05 -3.11775e-06 0)
(6.03993e-05 -9.10458e-07 0)
(5.91208e-05 1.4203e-06 0)
(5.64109e-05 3.85444e-06 0)
(5.21948e-05 6.37368e-06 0)
(4.6406e-05 8.95875e-06 0)
(3.89893e-05 1.15972e-05 0)
(2.98952e-05 1.42751e-05 0)
(1.90807e-05 1.698e-05 0)
(6.51157e-06 1.9703e-05 0)
(-7.84269e-06 2.24342e-05 0)
(-2.40064e-05 2.51646e-05 0)
(-4.19987e-05 2.78877e-05 0)
(-6.18345e-05 3.05963e-05 0)
(-8.3525e-05 3.32844e-05 0)
(-0.000107077 3.59477e-05 0)
(-0.000132495 3.85808e-05 0)
(-0.000159779 4.11798e-05 0)
(-0.000188926 4.37408e-05 0)
(-0.000219931 4.626e-05 0)
(-0.000252787 4.87345e-05 0)
(-0.000287483 5.11617e-05 0)
(-0.000324006 5.35393e-05 0)
(-0.000362343 5.58651e-05 0)
(-0.000402476 5.81372e-05 0)
(-0.000444389 6.03542e-05 0)
(-0.000488061 6.25143e-05 0)
(-0.000533471 6.46166e-05 0)
(-0.000580596 6.666e-05 0)
(-0.000629413 6.86432e-05 0)
(-0.000679896 7.05656e-05 0)
(-0.000732019 7.24267e-05 0)
(-0.000785754 7.4226e-05 0)
(-0.000841074 7.59629e-05 0)
(-0.000897948 7.76373e-05 0)
(-0.000956346 7.92492e-05 0)
(-0.00101624 8.07981e-05 0)
(-0.00107759 8.22842e-05 0)
(-0.00114037 8.37076e-05 0)
(-0.00120455 8.50683e-05 0)
(-0.00127009 8.63661e-05 0)
(-0.00133696 8.76013e-05 0)
(-0.00140512 8.87743e-05 0)
(-0.00147453 8.98854e-05 0)
(-0.00154517 9.09342e-05 0)
(-0.00161698 9.19215e-05 0)
(-0.00168995 9.28482e-05 0)
(-0.00176402 9.37141e-05 0)
(-0.00183916 9.45187e-05 0)
(-0.00191534 9.52633e-05 0)
(-0.0019925 9.59489e-05 0)
(-0.00207062 9.65745e-05 0)
(-0.00214965 9.71403e-05 0)
(-0.00222955 9.76478e-05 0)
(-0.00231028 9.80969e-05 0)
(-0.0023918 9.84872e-05 0)
(-0.00247406 9.88194e-05 0)
(-0.00255703 9.90942e-05 0)
(-0.00264065 9.93107e-05 0)
(-0.00272489 9.94696e-05 0)
(-0.0028097 9.95708e-05 0)
(-0.00289503 9.96141e-05 0)
(-0.00298083 9.95998e-05 0)
(-0.00306707 9.95275e-05 0)
(-0.00315368 9.93968e-05 0)
(-0.00324063 9.9208e-05 0)
(-0.00332785 9.8961e-05 0)
(-0.0034153 9.86551e-05 0)
(-0.00350293 9.82897e-05 0)
(-0.00359067 9.78649e-05 0)
(-0.00367848 9.73801e-05 0)
(-0.0037663 9.68348e-05 0)
(-0.00385407 9.6228e-05 0)
(-0.00394173 9.55592e-05 0)
(-0.00402922 9.48282e-05 0)
(-0.00411647 9.40335e-05 0)
(-0.00420342 9.31742e-05 0)
(-0.00429001 9.22498e-05 0)
(-0.00437616 9.12594e-05 0)
(-0.00446181 9.02017e-05 0)
(-0.00454688 8.90754e-05 0)
(-0.00463129 8.78796e-05 0)
(-0.00471498 8.66136e-05 0)
(-0.00479786 8.52758e-05 0)
(-0.00487985 8.38653e-05 0)
(-0.00496086 8.23803e-05 0)
(-0.00504081 8.08203e-05 0)
(-0.00511961 7.9184e-05 0)
(-0.00519717 7.74698e-05 0)
(-0.00527339 7.56767e-05 0)
(-0.00534819 7.38035e-05 0)
(-0.00542145 7.18495e-05 0)
(-0.00549308 6.98132e-05 0)
(-0.00556298 6.76937e-05 0)
(-0.00563103 6.54897e-05 0)
(-0.00569714 6.3201e-05 0)
(-0.00576118 6.08265e-05 0)
(-0.00582304 5.83652e-05 0)
(-0.00588262 5.5817e-05 0)
(-0.00593978 5.31808e-05 0)
(-0.00599441 5.04572e-05 0)
(-0.00604639 4.76456e-05 0)
(-0.0060956 4.47457e-05 0)
(-0.0061419 4.17585e-05 0)
(-0.00618517 3.86839e-05 0)
(-0.00622529 3.55227e-05 0)
(-0.00626213 3.22762e-05 0)
(-0.00629554 2.89453e-05 0)
(-0.00632542 2.55314e-05 0)
(-0.00635162 2.20365e-05 0)
(-0.00637402 1.84627e-05 0)
(-0.00639249 1.48118e-05 0)
(-0.0064069 1.10877e-05 0)
(-0.00641712 7.29142e-06 0)
(-0.00642304 3.42857e-06 0)
(3.93881e-07 -2.33136e-06 0)
(2.24673e-06 -6.92224e-06 0)
(5.92283e-06 -1.09962e-05 0)
(1.08525e-05 -1.4268e-05 0)
(1.66554e-05 -1.66601e-05 0)
(2.30437e-05 -1.81777e-05 0)
(2.97327e-05 -1.88689e-05 0)
(3.64415e-05 -1.88044e-05 0)
(4.29079e-05 -1.80639e-05 0)
(4.88896e-05 -1.67239e-05 0)
(5.41598e-05 -1.48621e-05 0)
(5.85159e-05 -1.2545e-05 0)
(6.17709e-05 -9.83464e-06 0)
(6.37563e-05 -6.78804e-06 0)
(6.43239e-05 -3.45164e-06 0)
(6.3337e-05 1.28562e-07 0)
(6.06762e-05 3.91479e-06 0)
(5.62362e-05 7.87347e-06 0)
(4.99211e-05 1.19724e-05 0)
(4.1649e-05 1.61861e-05 0)
(3.13472e-05 2.04904e-05 0)
(1.89521e-05 2.48625e-05 0)
(4.40982e-06 2.92845e-05 0)
(-1.23266e-05 3.37396e-05 0)
(-3.1297e-05 3.8211e-05 0)
(-5.25338e-05 4.26869e-05 0)
(-7.60635e-05 4.71537e-05 0)
(-0.000101908 5.16006e-05 0)
(-0.000130081 5.60176e-05 0)
(-0.000160595 6.03963e-05 0)
(-0.000193457 6.47283e-05 0)
(-0.000228668 6.9006e-05 0)
(-0.000266227 7.32246e-05 0)
(-0.00030613 7.73766e-05 0)
(-0.000348369 8.14577e-05 0)
(-0.000392931 8.54631e-05 0)
(-0.000439803 8.93884e-05 0)
(-0.000488967 9.32304e-05 0)
(-0.000540406 9.69855e-05 0)
(-0.000594097 0.000100651 0)
(-0.000650017 0.000104224 0)
(-0.000708139 0.000107703 0)
(-0.000768437 0.000111086 0)
(-0.00083088 0.000114371 0)
(-0.000895439 0.000117556 0)
(-0.00096208 0.000120641 0)
(-0.00103077 0.000123625 0)
(-0.00110147 0.000126507 0)
(-0.00117415 0.000129285 0)
(-0.00124877 0.000131961 0)
(-0.00132529 0.000134533 0)
(-0.00140367 0.000137002 0)
(-0.00148387 0.000139367 0)
(-0.00156584 0.000141629 0)
(-0.00164956 0.000143787 0)
(-0.00173496 0.000145841 0)
(-0.00182201 0.000147793 0)
(-0.00191066 0.000149642 0)
(-0.00200087 0.000151388 0)
(-0.00209259 0.000153032 0)
(-0.00218578 0.000154575 0)
(-0.00228037 0.000156018 0)
(-0.00237634 0.000157359 0)
(-0.00247361 0.000158601 0)
(-0.00257216 0.000159743 0)
(-0.00267192 0.000160786 0)
(-0.00277285 0.000161731 0)
(-0.00287489 0.000162578 0)
(-0.00297799 0.000163327 0)
(-0.0030821 0.000163979 0)
(-0.00318716 0.000164534 0)
(-0.00329311 0.000164993 0)
(-0.00339991 0.000165355 0)
(-0.00350749 0.00016562 0)
(-0.0036158 0.000165789 0)
(-0.00372478 0.000165862 0)
(-0.00383436 0.000165838 0)
(-0.00394449 0.000165718 0)
(-0.0040551 0.0001655 0)
(-0.00416614 0.000165186 0)
(-0.00427752 0.000164773 0)
(-0.0043892 0.000164262 0)
(-0.0045011 0.000163653 0)
(-0.00461315 0.000162944 0)
(-0.00472528 0.000162134 0)
(-0.00483741 0.000161223 0)
(-0.00494948 0.000160209 0)
(-0.0050614 0.000159092 0)
(-0.00517311 0.00015787 0)
(-0.0052845 0.000156543 0)
(-0.00539551 0.000155108 0)
(-0.00550605 0.000153564 0)
(-0.00561602 0.000151909 0)
(-0.00572534 0.000150142 0)
(-0.00583392 0.000148261 0)
(-0.00594166 0.000146264 0)
(-0.00604846 0.00014415 0)
(-0.00615422 0.000141916 0)
(-0.00625883 0.00013956 0)
(-0.00636219 0.000137081 0)
(-0.00646419 0.000134476 0)
(-0.00656471 0.000131744 0)
(-0.00666364 0.000128883 0)
(-0.00676085 0.000125891 0)
(-0.00685623 0.000122765 0)
(-0.00694965 0.000119504 0)
(-0.00704098 0.000116107 0)
(-0.00713008 0.000112571 0)
(-0.00721682 0.000108895 0)
(-0.00730106 0.000105078 0)
(-0.00738266 0.000101118 0)
(-0.00746148 9.70149e-05 0)
(-0.00753736 9.2767e-05 0)
(-0.00761015 8.83732e-05 0)
(-0.00767972 8.38338e-05 0)
(-0.00774588 7.91487e-05 0)
(-0.0078085 7.43175e-05 0)
(-0.00786741 6.9341e-05 0)
(-0.00792245 6.422e-05 0)
(-0.00797346 5.89555e-05 0)
(-0.00802027 5.35498e-05 0)
(-0.00806272 4.80042e-05 0)
(-0.00810065 4.23213e-05 0)
(-0.00813389 3.6504e-05 0)
(-0.00816227 3.05565e-05 0)
(-0.00818564 2.44814e-05 0)
(-0.00820382 1.82849e-05 0)
(-0.00821667 1.19695e-05 0)
(-0.00822403 5.54347e-06 0)
(4.44486e-07 -3.60664e-06 0)
(2.51394e-06 -1.01077e-05 0)
(6.57237e-06 -1.56195e-05 0)
(1.19455e-05 -1.99479e-05 0)
(1.81825e-05 -2.30499e-05 0)
(2.49621e-05 -2.49546e-05 0)
(3.19651e-05 -2.57303e-05 0)
(3.88867e-05 -2.54703e-05 0)
(4.5441e-05 -2.42727e-05 0)
(5.13572e-05 -2.22411e-05 0)
(5.6389e-05 -1.94715e-05 0)
(6.03067e-05 -1.60548e-05 0)
(6.28997e-05 -1.20764e-05 0)
(6.39775e-05 -7.60863e-06 0)
(6.33664e-05 -2.72169e-06 0)
(6.09106e-05 2.52367e-06 0)
(5.64699e-05 8.0743e-06 0)
(4.99179e-05 1.38795e-05 0)
(4.11436e-05 1.98962e-05 0)
(3.00475e-05 2.60868e-05 0)
(1.65413e-05 3.24142e-05 0)
(5.48916e-07 3.88485e-05 0)
(-1.79962e-05 4.53616e-05 0)
(-3.91523e-05 5.19271e-05 0)
(-6.29682e-05 5.85234e-05 0)
(-8.94848e-05 6.513e-05 0)
(-0.000118737 7.17283e-05 0)
(-0.000150752 7.83017e-05 0)
(-0.000185549 8.48361e-05 0)
(-0.000223146 9.1317e-05 0)
(-0.000263552 9.77331e-05 0)
(-0.000306771 0.000104074 0)
(-0.000352804 0.000110328 0)
(-0.000401647 0.000116488 0)
(-0.000453292 0.000122546 0)
(-0.000507728 0.000128494 0)
(-0.000564938 0.000134326 0)
(-0.000624905 0.000140037 0)
(-0.000687608 0.000145622 0)
(-0.00075302 0.000151075 0)
(-0.000821117 0.000156394 0)
(-0.000891867 0.000161574 0)
(-0.000965239 0.000166613 0)
(-0.0010412 0.000171509 0)
(-0.00111971 0.000176257 0)
(-0.00120074 0.000180858 0)
(-0.00128424 0.000185309 0)
(-0.00137017 0.00018961 0)
(-0.00145849 0.000193758 0)
(-0.00154915 0.000197753 0)
(-0.00164212 0.000201596 0)
(-0.00173733 0.000205285 0)
(-0.00183475 0.00020882 0)
(-0.00193431 0.0002122 0)
(-0.00203598 0.000215427 0)
(-0.0021397 0.000218501 0)
(-0.00224542 0.000221421 0)
(-0.00235308 0.000224187 0)
(-0.00246262 0.000226802 0)
(-0.002574 0.000229264 0)
(-0.00268715 0.000231575 0)
(-0.00280201 0.000233735 0)
(-0.00291854 0.000235745 0)
(-0.00303666 0.000237606 0)
(-0.00315632 0.000239318 0)
(-0.00327745 0.000240882 0)
(-0.0034 0.000242298 0)
(-0.0035239 0.000243568 0)
(-0.00364909 0.000244692 0)
(-0.0037755 0.00024567 0)
(-0.00390306 0.000246502 0)
(-0.00403172 0.00024719 0)
(-0.0041614 0.000247732 0)
(-0.00429202 0.00024813 0)
(-0.00442353 0.000248384 0)
(-0.00455585 0.000248492 0)
(-0.00468891 0.000248456 0)
(-0.00482263 0.000248274 0)
(-0.00495693 0.000247947 0)
(-0.00509174 0.000247473 0)
(-0.00522698 0.000246853 0)
(-0.00536257 0.000246085 0)
(-0.00549842 0.000245168 0)
(-0.00563446 0.000244101 0)
(-0.00577059 0.000242884 0)
(-0.00590672 0.000241514 0)
(-0.00604276 0.00023999 0)
(-0.00617863 0.000238311 0)
(-0.00631422 0.000236474 0)
(-0.00644943 0.000234478 0)
(-0.00658417 0.000232321 0)
(-0.00671832 0.00023 0)
(-0.00685179 0.000227513 0)
(-0.00698446 0.000224857 0)
(-0.00711622 0.00022203 0)
(-0.00724695 0.000219028 0)
(-0.00737653 0.000215851 0)
(-0.00750484 0.000212494 0)
(-0.00763175 0.000208955 0)
(-0.00775712 0.00020523 0)
(-0.00788084 0.000201318 0)
(-0.00800275 0.000197215 0)
(-0.00812272 0.000192918 0)
(-0.0082406 0.000188425 0)
(-0.00835624 0.000183731 0)
(-0.00846949 0.000178836 0)
(-0.00858019 0.000173737 0)
(-0.00868818 0.00016843 0)
(-0.00879329 0.000162914 0)
(-0.00889537 0.000157187 0)
(-0.00899422 0.000151247 0)
(-0.00908969 0.000145092 0)
(-0.00918159 0.00013872 0)
(-0.00926973 0.000132132 0)
(-0.00935394 0.000125326 0)
(-0.00943403 0.000118302 0)
(-0.0095098 0.000111061 0)
(-0.00958106 0.000103602 0)
(-0.00964763 9.59289e-05 0)
(-0.00970929 8.80415e-05 0)
(-0.00976586 7.99431e-05 0)
(-0.00981713 7.16365e-05 0)
(-0.00986291 6.31258e-05 0)
(-0.009903 5.44148e-05 0)
(-0.0099372 4.55098e-05 0)
(-0.00996531 3.64148e-05 0)
(-0.00998715 2.7139e-05 0)
(-0.0100025 1.76872e-05 0)
(-0.0100112 8.06998e-06 0)
(4.71066e-07 -4.99746e-06 0)
(2.65416e-06 -1.35568e-05 0)
(6.9096e-06 -2.05795e-05 0)
(1.24902e-05 -2.59719e-05 0)
(1.88952e-05 -2.97435e-05 0)
(2.57647e-05 -3.19597e-05 0)
(3.27558e-05 -3.27185e-05 0)
(3.95395e-05 -3.21337e-05 0)
(4.58076e-05 -3.03331e-05 0)
(5.12738e-05 -2.74391e-05 0)
(5.56685e-05 -2.35722e-05 0)
(5.8743e-05 -1.88478e-05 0)
(6.02693e-05 -1.33693e-05 0)
(6.00357e-05 -7.23465e-06 0)
(5.78501e-05 -5.31534e-07 0)
(5.35385e-05 6.66196e-06 0)
(4.69417e-05 1.42723e-05 0)
(3.79177e-05 2.22353e-05 0)
(2.63395e-05 3.04937e-05 0)
(1.20915e-05 3.89931e-05 0)
(-4.92748e-06 4.76881e-05 0)
(-2.48061e-05 5.65354e-05 0)
(-4.76241e-05 6.54969e-05 0)
(-7.34488e-05 7.45375e-05 0)
(-0.000102339 8.36268e-05 0)
(-0.000134344 9.27356e-05 0)
(-0.000169506 0.000101839 0)
(-0.000207859 0.000110914 0)
(-0.000249429 0.00011994 0)
(-0.000294236 0.000128898 0)
(-0.000342293 0.000137771 0)
(-0.00039361 0.000146545 0)
(-0.000448187 0.000155204 0)
(-0.000506024 0.000163736 0)
(-0.000567112 0.000172131 0)
(-0.000631439 0.000180378 0)
(-0.000698991 0.000188469 0)
(-0.000769747 0.000196394 0)
(-0.000843684 0.000204147 0)
(-0.000920776 0.000211721 0)
(-0.00100099 0.000219112 0)
(-0.0010843 0.000226312 0)
(-0.00117066 0.000233319 0)
(-0.00126004 0.000240128 0)
(-0.0013524 0.000246736 0)
(-0.00144769 0.000253141 0)
(-0.00154587 0.000259338 0)
(-0.00164689 0.000265328 0)
(-0.0017507 0.000271108 0)
(-0.00185725 0.000276677 0)
(-0.00196648 0.000282034 0)
(-0.00207835 0.000287178 0)
(-0.0021928 0.000292108 0)
(-0.00230977 0.000296826 0)
(-0.00242919 0.000301329 0)
(-0.00255102 0.00030562 0)
(-0.00267518 0.000309697 0)
(-0.00280162 0.000313561 0)
(-0.00293027 0.000317213 0)
(-0.00306107 0.000320654 0)
(-0.00319395 0.000323883 0)
(-0.00332884 0.000326902 0)
(-0.00346567 0.000329713 0)
(-0.00360438 0.000332315 0)
(-0.0037449 0.000334709 0)
(-0.00388714 0.000336896 0)
(-0.00403105 0.000338878 0)
(-0.00417654 0.000340654 0)
(-0.00432354 0.000342226 0)
(-0.00447198 0.000343594 0)
(-0.00462177 0.000344759 0)
(-0.00477284 0.000345721 0)
(-0.00492511 0.000346479 0)
(-0.0050785 0.000347035 0)
(-0.00523292 0.000347389 0)
(-0.00538828 0.00034754 0)
(-0.00554452 0.000347487 0)
(-0.00570152 0.000347231 0)
(-0.00585922 0.00034677 0)
(-0.00601751 0.000346105 0)
(-0.00617629 0.000345233 0)
(-0.00633549 0.000344154 0)
(-0.00649499 0.000342867 0)
(-0.0066547 0.00034137 0)
(-0.00681451 0.00033966 0)
(-0.00697433 0.000337737 0)
(-0.00713404 0.000335599 0)
(-0.00729353 0.000333242 0)
(-0.00745269 0.000330664 0)
(-0.0076114 0.000327863 0)
(-0.00776955 0.000324835 0)
(-0.007927 0.000321578 0)
(-0.00808364 0.000318088 0)
(-0.00823933 0.000314361 0)
(-0.00839395 0.000310395 0)
(-0.00854734 0.000306185 0)
(-0.00869938 0.000301728 0)
(-0.00884992 0.000297019 0)
(-0.0089988 0.000292056 0)
(-0.00914587 0.000286834 0)
(-0.00929098 0.000281348 0)
(-0.00943397 0.000275596 0)
(-0.00957466 0.000269572 0)
(-0.00971288 0.000263273 0)
(-0.00984847 0.000256696 0)
(-0.00998124 0.000249837 0)
(-0.010111 0.000242692 0)
(-0.0102376 0.000235258 0)
(-0.0103608 0.000227531 0)
(-0.0104804 0.00021951 0)
(-0.0105962 0.000211192 0)
(-0.010708 0.000202573 0)
(-0.0108156 0.000193653 0)
(-0.0109189 0.000184431 0)
(-0.0110174 0.000174906 0)
(-0.0111112 0.000165077 0)
(-0.0111998 0.000154944 0)
(-0.0112832 0.00014451 0)
(-0.0113611 0.000133777 0)
(-0.0114332 0.000122745 0)
(-0.0114993 0.00011142 0)
(-0.0115592 9.98058e-05 0)
(-0.0116126 8.79075e-05 0)
(-0.0116594 7.57307e-05 0)
(-0.0116992 6.32842e-05 0)
(-0.011732 5.0574e-05 0)
(-0.0117573 3.76123e-05 0)
(-0.0117751 2.44065e-05 0)
(-0.011785 1.09705e-05 0)
(4.7778e-07 -6.43884e-06 0)
(2.68583e-06 -1.71223e-05 0)
(6.96835e-06 -2.56723e-05 0)
(1.25404e-05 -3.20949e-05 0)
(1.88609e-05 -3.64652e-05 0)
(2.55429e-05 -3.88917e-05 0)
(3.22198e-05 -3.95052e-05 0)
(3.85416e-05 -3.84522e-05 0)
(4.41849e-05 -3.58817e-05 0)
(4.88455e-05 -3.19434e-05 0)
(5.22384e-05 -2.67829e-05 0)
(5.41006e-05 -2.05349e-05 0)
(5.41857e-05 -1.3328e-05 0)
(5.22675e-05 -5.28109e-06 0)
(4.8139e-05 3.49956e-06 0)
(4.16089e-05 1.29131e-05 0)
(3.25034e-05 2.28708e-05 0)
(2.06664e-05 3.32914e-05 0)
(5.95472e-06 4.40999e-05 0)
(-1.17588e-05 5.52298e-05 0)
(-3.2588e-05 6.66208e-05 0)
(-5.66349e-05 7.82177e-05 0)
(-8.39884e-05 8.99704e-05 0)
(-0.000114727 0.000101835 0)
(-0.000148918 0.000113769 0)
(-0.00018662 0.000125737 0)
(-0.000227882 0.000137705 0)
(-0.000272743 0.000149642 0)
(-0.000321236 0.000161521 0)
(-0.000373387 0.000173317 0)
(-0.000429212 0.000185007 0)
(-0.000488723 0.000196571 0)
(-0.000551925 0.000207991 0)
(-0.000618817 0.00021925 0)
(-0.000689394 0.000230331 0)
(-0.000763643 0.000241223 0)
(-0.00084155 0.000251912 0)
(-0.000923093 0.000262388 0)
(-0.00100825 0.00027264 0)
(-0.00109699 0.000282659 0)
(-0.00118928 0.000292439 0)
(-0.00128508 0.000301971 0)
(-0.00138437 0.000311251 0)
(-0.00148708 0.000320271 0)
(-0.00159319 0.000329028 0)
(-0.00170264 0.000337518 0)
(-0.00181538 0.000345737 0)
(-0.00193135 0.000353682 0)
(-0.00205052 0.000361352 0)
(-0.0021728 0.000368743 0)
(-0.00229816 0.000375855 0)
(-0.00242652 0.000382686 0)
(-0.00255782 0.000389236 0)
(-0.002692 0.000395503 0)
(-0.00282899 0.000401489 0)
(-0.00296873 0.000407192 0)
(-0.00311114 0.000412613 0)
(-0.00325615 0.000417752 0)
(-0.00340369 0.00042261 0)
(-0.00355369 0.000427188 0)
(-0.00370607 0.000431485 0)
(-0.00386075 0.000435504 0)
(-0.00401766 0.000439245 0)
(-0.00417671 0.000442709 0)
(-0.00433783 0.000445897 0)
(-0.00450094 0.000448811 0)
(-0.00466594 0.00045145 0)
(-0.00483276 0.000453816 0)
(-0.00500131 0.000455909 0)
(-0.00517151 0.000457732 0)
(-0.00534326 0.000459283 0)
(-0.00551647 0.000460563 0)
(-0.00569106 0.000461573 0)
(-0.00586692 0.000462313 0)
(-0.00604397 0.000462782 0)
(-0.0062221 0.00046298 0)
(-0.00640122 0.000462907 0)
(-0.00658123 0.000462563 0)
(-0.00676202 0.000461945 0)
(-0.00694349 0.000461054 0)
(-0.00712553 0.000459887 0)
(-0.00730803 0.000458444 0)
(-0.00749088 0.000456722 0)
(-0.00767396 0.000454719 0)
(-0.00785716 0.000452434 0)
(-0.00804036 0.000449862 0)
(-0.00822342 0.000447003 0)
(-0.00840623 0.000443852 0)
(-0.00858865 0.000440406 0)
(-0.00877055 0.000436662 0)
(-0.00895179 0.000432615 0)
(-0.00913223 0.000428262 0)
(-0.00931173 0.000423598 0)
(-0.00949013 0.000418618 0)
(-0.00966729 0.000413319 0)
(-0.00984304 0.000407694 0)
(-0.0100172 0.000401739 0)
(-0.0101897 0.00039545 0)
(-0.0103602 0.00038882 0)
(-0.0105287 0.000381845 0)
(-0.0106949 0.000374519 0)
(-0.0108586 0.000366838 0)
(-0.0110197 0.000358796 0)
(-0.011178 0.000350388 0)
(-0.0113332 0.000341609 0)
(-0.0114852 0.000332454 0)
(-0.0116337 0.000322919 0)
(-0.0117785 0.000313 0)
(-0.0119195 0.000302692 0)
(-0.0120563 0.000291992 0)
(-0.0121888 0.000280897 0)
(-0.0123167 0.000269403 0)
(-0.0124398 0.000257509 0)
(-0.0125579 0.000245214 0)
(-0.0126706 0.000232516 0)
(-0.0127777 0.000219415 0)
(-0.012879 0.000205912 0)
(-0.0129743 0.000192008 0)
(-0.0130632 0.000177708 0)
(-0.0131455 0.000163012 0)
(-0.0132209 0.000147928 0)
(-0.0132892 0.00013246 0)
(-0.0133502 0.000116616 0)
(-0.0134034 0.000100403 0)
(-0.0134488 8.38328e-05 0)
(-0.013486 6.69141e-05 0)
(-0.0135147 4.96619e-05 0)
(-0.0135348 3.20876e-05 0)
(-0.0135459 1.42084e-05 0)
(4.69151e-07 -7.87801e-06 0)
(2.62519e-06 -2.06723e-05 0)