/*--------------------------------*- C++ -*----------------------------------*\
| =========                 |                                                 |
| \\      /  F ield         | OpenFOAM: The Open Source CFD Toolbox           |
|  \\    /   O peration     | Version:  2112                                  |
|   \\  /    A nd           | Website:  www.openfoam.com                      |
|    \\/     M anipulation  |                                                 |
\*---------------------------------------------------------------------------*/
FoamFile
{
    version     2.0;
    format      ascii;
    arch        "LSB;label=32;scalar=64";
    class       volScalarField;
    location    "5.98";
    object      p;
}
// * * * * * * * * * * * * * * * * * * * * * * * * * * * * * * * * * * * * * //

dimensions      [0 2 -2 0 0 0 0];

internalField   nonuniform List<scalar> 
25600
(
-4.42872e-14
5.71214e-10
1.0188e-09
1.30516e-09
1.49075e-09
1.60555e-09
1.65623e-09
1.65959e-09
1.63298e-09
1.59135e-09
1.54776e-09
1.51279e-09
1.49376e-09
1.49445e-09
1.51558e-09
1.55552e-09
1.61118e-09
1.67877e-09
1.75438e-09
1.83432e-09
1.91531e-09
1.99458e-09
2.0698e-09
2.13911e-09
2.201e-09
2.25429e-09
2.29809e-09
2.33166e-09
2.35445e-09
2.36642e-09
2.36728e-09
2.35699e-09
2.33565e-09
2.30348e-09
2.26076e-09
2.20785e-09
2.14519e-09
2.07326e-09
1.99256e-09
1.90366e-09
1.80712e-09
1.70352e-09
1.59345e-09
1.47749e-09
1.35624e-09
1.23024e-09
1.10007e-09
9.66247e-10
8.29298e-10
6.89714e-10
5.47967e-10
4.04505e-10
2.59751e-10
1.14105e-10
-3.2059e-11
-1.78388e-10
-3.24554e-10
-4.7025e-10
-6.15191e-10
-7.59115e-10
-9.01776e-10
-1.04295e-09
-1.18243e-09
-1.32003e-09
-1.45557e-09
-1.5889e-09
-1.71987e-09
-1.84836e-09
-1.97424e-09
-2.09743e-09
-2.21782e-09
-2.33533e-09
-2.4499e-09
-2.56148e-09
-2.67e-09
-2.77542e-09
-2.87773e-09
-2.97688e-09
-3.07288e-09
-3.1657e-09
-3.25534e-09
-3.34182e-09
-3.42514e-09
-3.50531e-09
-3.58236e-09
-3.65632e-09
-3.72722e-09
-3.79508e-09
-3.85997e-09
-3.92191e-09
-3.98096e-09
-4.03716e-09
-4.09058e-09
-4.14128e-09
-4.1893e-09
-4.23472e-09
-4.2776e-09
-4.31801e-09
-4.35601e-09
-4.39168e-09
-4.42509e-09
-4.45632e-09
-4.48543e-09
-4.5125e-09
-4.53761e-09
-4.56083e-09
-4.58224e-09
-4.60192e-09
-4.61993e-09
-4.63636e-09
-4.65129e-09
-4.66477e-09
-4.6769e-09
-4.68774e-09
-4.69736e-09
-4.70583e-09
-4.71322e-09
-4.71961e-09
-4.72505e-09
-4.7296e-09
-4.73335e-09
-4.73633e-09
-4.73861e-09
-4.74026e-09
-4.74131e-09
-4.74183e-09
-4.74187e-09
-4.74147e-09
-4.74068e-09
-4.73955e-09
-4.73811e-09
-4.73641e-09
-4.73448e-09
-4.73236e-09
-4.73008e-09
-4.72767e-09
-4.72515e-09
-4.72257e-09
-4.71992e-09
-4.71725e-09
-4.71457e-09
-4.71189e-09
-4.70923e-09
-4.70661e-09
-4.70404e-09
-4.70152e-09
-4.69907e-09
-4.69669e-09
-4.69439e-09
-4.69216e-09
-4.69002e-09
-4.68796e-09
-4.68598e-09
-4.68409e-09
-4.68226e-09
-4.68051e-09
-4.67883e-09
-4.67721e-09
-4.67565e-09
-4.67413e-09
-4.67265e-09
-4.67121e-09
-4.66978e-09
-4.66837e-09
-4.66695e-09
-4.66553e-09
-4.66409e-09
-4.66262e-09
-4.66111e-09
-4.65955e-09
-4.65792e-09
-4.65623e-09
-4.65444e-09
-4.65257e-09
-4.65058e-09
-4.64848e-09
-4.64626e-09
-4.6439e-09
-4.64139e-09
-4.63873e-09
-4.63591e-09
-4.63292e-09
-4.62975e-09
-4.6264e-09
-4.62285e-09
-4.6191e-09
-4.61515e-09
-4.61098e-09
-4.6066e-09
-4.602e-09
-4.59718e-09
-4.59213e-09
-4.58684e-09
-4.58132e-09
-4.57557e-09
-4.56958e-09
-4.56335e-09
-4.55688e-09
-4.55017e-09
-4.54322e-09
-4.53604e-09
-4.52861e-09
-4.52094e-09
-4.51304e-09
-4.50491e-09
-4.49655e-09
-4.48795e-09
-4.47913e-09
-4.47009e-09
-4.46083e-09
-4.45135e-09
-4.44166e-09
-4.43176e-09
-4.42166e-09
-4.41136e-09
-4.40086e-09
-4.39018e-09
-4.3793e-09
-4.36824e-09
-4.35701e-09
-4.3456e-09
-4.33403e-09
-4.32229e-09
-4.31038e-09
-4.29832e-09
-4.28611e-09
-4.27374e-09
-4.26123e-09
-4.24857e-09
-4.23577e-09
-4.22283e-09
-4.20974e-09
-4.19652e-09
-4.18315e-09
-4.16964e-09
-4.15598e-09
-4.14217e-09
-4.1282e-09
-4.11408e-09
-4.09978e-09
-4.0853e-09
-4.07063e-09
-4.05576e-09
-4.04067e-09
-4.02534e-09
-4.00975e-09
-3.99387e-09
-3.97768e-09
-3.96115e-09
-3.94425e-09
-3.92692e-09
-3.90913e-09
-3.89083e-09
-3.87196e-09
-3.85246e-09
-3.83226e-09
-3.81129e-09
-3.78945e-09
-3.76666e-09
-3.74281e-09
-3.71779e-09
-3.69148e-09
-3.66373e-09
-3.63439e-09
-3.60332e-09
-3.57031e-09
-3.5352e-09
-3.49776e-09
-3.45777e-09
-3.41498e-09
-3.36915e-09
-3.31998e-09
-3.2672e-09
-3.21047e-09
-3.14949e-09
-3.08389e-09
-3.01333e-09
-2.93742e-09
-2.8558e-09
-2.76808e-09
-2.67387e-09
-2.57278e-09
-2.46444e-09
-2.34849e-09
-2.22459e-09
-2.09246e-09
-1.95182e-09
-1.80247e-09
-1.64428e-09
-1.4772e-09
-1.30128e-09
-1.11668e-09
-9.23712e-10
-7.22858e-10
-5.14799e-10
-3.00454e-10
-8.1028e-11
1.41932e-10
3.6648e-10
5.902e-10
8.10139e-10
1.02275e-09
1.22384e-09
1.40857e-09
1.5715e-09
1.7067e-09
1.80795e-09
1.86903e-09
1.88395e-09
1.84725e-09
1.75395e-09
1.5998e-09
1.38725e-09
1.11286e-09
7.81814e-10
4.07693e-10
1.1013e-11
-3.5714e-10
-5.70304e-10
-4.57504e-10
6.56746e-11
4.13331e-10
7.11386e-10
9.38182e-10
1.12744e-09
1.26711e-09
1.34655e-09
1.37865e-09
1.38034e-09
1.366e-09
1.34852e-09
1.33847e-09
1.34309e-09
1.36603e-09
1.40778e-09
1.46659e-09
1.53929e-09
1.62209e-09
1.71116e-09
1.80292e-09
1.89426e-09
1.98254e-09
2.06559e-09
2.14168e-09
2.20942e-09
2.26775e-09
2.31585e-09
2.35317e-09
2.37933e-09
2.39394e-09
2.39701e-09
2.38859e-09
2.36881e-09
2.3379e-09
2.2962e-09
2.2441e-09
2.18206e-09
2.11058e-09
2.0302e-09
1.94149e-09
1.84503e-09
1.74143e-09
1.63128e-09
1.51517e-09
1.39371e-09
1.26746e-09
1.13698e-09
1.00282e-09
8.65496e-10
7.2551e-10
5.83335e-10
4.39422e-10
2.94197e-10
1.48062e-10
1.39286e-12
-1.45456e-10
-2.92155e-10
-4.38397e-10
-5.83895e-10
-7.28385e-10
-8.71623e-10
-1.01338e-09
-1.15345e-09
-1.29165e-09
-1.4278e-09
-1.56174e-09
-1.69333e-09
-1.82243e-09
-1.94894e-09
-2.07276e-09
-2.19377e-09
-2.31192e-09
-2.42713e-09
-2.53933e-09
-2.64848e-09
-2.75454e-09
-2.85748e-09
-2.95726e-09
-3.05388e-09
-3.14732e-09
-3.23759e-09
-3.32468e-09
-3.4086e-09
-3.48938e-09
-3.56702e-09
-3.64157e-09
-3.71304e-09
-3.78148e-09
-3.84692e-09
-3.90942e-09
-3.96901e-09
-4.02575e-09
-4.07969e-09
-4.13089e-09
-4.17941e-09
-4.22532e-09
-4.26867e-09
-4.30954e-09
-4.34799e-09
-4.38409e-09
-4.41792e-09
-4.44955e-09
-4.47906e-09
-4.50651e-09
-4.53198e-09
-4.55555e-09
-4.5773e-09
-4.5973e-09
-4.61562e-09
-4.63234e-09
-4.64754e-09
-4.6613e-09
-4.67367e-09
-4.68475e-09
-4.69459e-09
-4.70327e-09
-4.71086e-09
-4.71743e-09
-4.72304e-09
-4.72775e-09
-4.73164e-09
-4.73476e-09
-4.73717e-09
-4.73892e-09
-4.74008e-09
-4.74069e-09
-4.74081e-09
-4.74048e-09
-4.73976e-09
-4.73868e-09
-4.73729e-09
-4.73562e-09
-4.73373e-09
-4.73163e-09
-4.72936e-09
-4.72696e-09
-4.72445e-09
-4.72187e-09
-4.71922e-09
-4.71654e-09
-4.71384e-09
-4.71115e-09
-4.70847e-09
-4.70583e-09
-4.70323e-09
-4.70068e-09
-4.6982e-09
-4.69579e-09
-4.69346e-09
-4.6912e-09
-4.68903e-09
-4.68693e-09
-4.68492e-09
-4.68299e-09
-4.68113e-09
-4.67935e-09
-4.67764e-09
-4.67599e-09
-4.6744e-09
-4.67285e-09
-4.67135e-09
-4.66988e-09
-4.66843e-09
-4.66699e-09
-4.66556e-09
-4.66413e-09
-4.66267e-09
-4.66119e-09
-4.65967e-09
-4.6581e-09
-4.65647e-09
-4.65477e-09
-4.65299e-09
-4.65111e-09
-4.64913e-09
-4.64704e-09
-4.64482e-09
-4.64247e-09
-4.63998e-09
-4.63733e-09
-4.63453e-09
-4.63156e-09
-4.62841e-09
-4.62508e-09
-4.62155e-09
-4.61783e-09
-4.6139e-09
-4.60977e-09
-4.60542e-09
-4.60085e-09
-4.59606e-09
-4.59104e-09
-4.5858e-09
-4.58032e-09
-4.5746e-09
-4.56865e-09
-4.56246e-09
-4.55603e-09
-4.54936e-09
-4.54245e-09
-4.53531e-09
-4.52792e-09
-4.5203e-09
-4.51245e-09
-4.50436e-09
-4.49604e-09
-4.48749e-09
-4.47871e-09
-4.46972e-09
-4.4605e-09
-4.45107e-09
-4.44143e-09
-4.43157e-09
-4.42152e-09
-4.41126e-09
-4.40081e-09
-4.39017e-09
-4.37934e-09
-4.36833e-09
-4.35714e-09
-4.34578e-09
-4.33425e-09
-4.32255e-09
-4.3107e-09
-4.29869e-09
-4.28652e-09
-4.2742e-09
-4.26174e-09
-4.24913e-09
-4.23638e-09
-4.22349e-09
-4.21045e-09
-4.19728e-09
-4.18397e-09
-4.17051e-09
-4.1569e-09
-4.14315e-09
-4.12925e-09
-4.11518e-09
-4.10095e-09
-4.08654e-09
-4.07194e-09
-4.05714e-09
-4.04213e-09
-4.02688e-09
-4.01137e-09
-3.99559e-09
-3.9795e-09
-3.96307e-09
-3.94627e-09
-3.92906e-09
-3.91139e-09
-3.89323e-09
-3.8745e-09
-3.85516e-09
-3.83512e-09
-3.81433e-09
-3.79268e-09
-3.7701e-09
-3.74648e-09
-3.7217e-09
-3.69565e-09
-3.66818e-09
-3.63916e-09
-3.60842e-09
-3.57578e-09
-3.54105e-09
-3.50403e-09
-3.4645e-09
-3.42221e-09
-3.3769e-09
-3.32831e-09
-3.27614e-09
-3.22008e-09
-3.15979e-09
-3.09495e-09
-3.02519e-09
-2.95015e-09
-2.86943e-09
-2.78267e-09
-2.68947e-09
-2.58944e-09
-2.48222e-09
-2.36743e-09
-2.24475e-09
-2.11386e-09
-1.9745e-09
-1.82646e-09
-1.6696e-09
-1.50386e-09
-1.32926e-09
-1.14595e-09
-9.5423e-10
-7.54533e-10
-5.47508e-10
-3.34027e-10
-1.1524e-10
1.07377e-10
3.31956e-10
5.5617e-10
7.77165e-10
9.91496e-10
1.19508e-09
1.38318e-09
1.5505e-09
1.69125e-09
1.79944e-09
1.86921e-09
1.89522e-09
1.87321e-09
1.80052e-09
1.67634e-09
1.49814e-09
1.27109e-09
1.00296e-09
7.08233e-10
4.01005e-10
9.56416e-11
-1.3741e-10
-1.64173e-10
1.06576e-10
3.01222e-10
4.77716e-10
6.34848e-10
8.07506e-10
9.59763e-10
1.05892e-09
1.1135e-09
1.14015e-09
1.15191e-09
1.16066e-09
1.17639e-09
1.20584e-09
1.25226e-09
1.31582e-09
1.39455e-09
1.48517e-09
1.5839e-09
1.68698e-09
1.79095e-09
1.89285e-09
1.99018e-09
2.08096e-09
2.16359e-09
2.23684e-09
2.29977e-09
2.35166e-09
2.39204e-09
2.42066e-09
2.43728e-09
2.4419e-09
2.43462e-09
2.41564e-09
2.38527e-09
2.34386e-09
2.29185e-09
2.22973e-09
2.15803e-09
2.07731e-09
1.98817e-09
1.8912e-09
1.78702e-09
1.67624e-09
1.55948e-09
1.43731e-09
1.31034e-09
1.17912e-09
1.04421e-09
9.06127e-10
7.65372e-10
6.22423e-10
4.77734e-10
3.31731e-10
1.84818e-10
3.73716e-11
-1.10254e-10
-2.57728e-10
-4.04742e-10
-5.51011e-10
-6.9627e-10
-8.40273e-10
-9.82796e-10
-1.12363e-09
-1.26258e-09
-1.39949e-09
-1.53418e-09
-1.66651e-09
-1.79637e-09
-1.92362e-09
-2.04817e-09
-2.16992e-09
-2.28879e-09
-2.40472e-09
-2.51764e-09
-2.6275e-09
-2.73426e-09
-2.83789e-09
-2.93837e-09
-3.03567e-09
-3.12978e-09
-3.22071e-09
-3.30845e-09
-3.39302e-09
-3.47443e-09
-3.5527e-09
-3.62785e-09
-3.69993e-09
-3.76895e-09
-3.83497e-09
-3.89803e-09
-3.95817e-09
-4.01544e-09
-4.0699e-09
-4.12161e-09
-4.17063e-09
-4.21701e-09
-4.26082e-09
-4.30214e-09
-4.34102e-09
-4.37754e-09
-4.41177e-09
-4.44379e-09
-4.47366e-09
-4.50146e-09
-4.52727e-09
-4.55117e-09
-4.57322e-09
-4.59351e-09
-4.61211e-09
-4.62909e-09
-4.64454e-09
-4.65852e-09
-4.67111e-09
-4.68239e-09
-4.69242e-09
-4.70128e-09
-4.70903e-09
-4.71574e-09
-4.72149e-09
-4.72633e-09
-4.73033e-09
-4.73355e-09
-4.73605e-09
-4.73788e-09
-4.73911e-09
-4.73978e-09
-4.73995e-09
-4.73967e-09
-4.73897e-09
-4.73792e-09
-4.73655e-09
-4.7349e-09
-4.73301e-09
-4.73091e-09
-4.72864e-09
-4.72623e-09
-4.72371e-09
-4.7211e-09
-4.71844e-09
-4.71573e-09
-4.713e-09
-4.71028e-09
-4.70757e-09
-4.7049e-09
-4.70226e-09
-4.69968e-09
-4.69717e-09
-4.69472e-09
-4.69235e-09
-4.69005e-09
-4.68784e-09
-4.68571e-09
-4.68367e-09
-4.6817e-09
-4.67981e-09
-4.678e-09
-4.67626e-09
-4.67459e-09
-4.67297e-09
-4.6714e-09
-4.66987e-09
-4.66838e-09
-4.66692e-09
-4.66547e-09
-4.66403e-09
-4.66258e-09
-4.66112e-09
-4.65964e-09
-4.65811e-09
-4.65655e-09
-4.65492e-09
-4.65322e-09
-4.65145e-09
-4.64958e-09
-4.64762e-09
-4.64554e-09
-4.64334e-09
-4.64101e-09
-4.63854e-09
-4.63592e-09
-4.63314e-09
-4.63019e-09
-4.62707e-09
-4.62377e-09
-4.62028e-09
-4.61659e-09
-4.6127e-09
-4.6086e-09
-4.60429e-09
-4.59976e-09
-4.59501e-09
-4.59003e-09
-4.58483e-09
-4.57939e-09
-4.57372e-09
-4.56781e-09
-4.56166e-09
-4.55528e-09
-4.54866e-09
-4.54179e-09
-4.53469e-09
-4.52736e-09
-4.51978e-09
-4.51197e-09
-4.50393e-09
-4.49566e-09
-4.48715e-09
-4.47843e-09
-4.46948e-09
-4.46031e-09
-4.45092e-09
-4.44133e-09
-4.43152e-09
-4.42151e-09
-4.4113e-09
-4.4009e-09
-4.3903e-09
-4.37952e-09
-4.36856e-09
-4.35742e-09
-4.3461e-09
-4.33462e-09
-4.32297e-09
-4.31116e-09
-4.2992e-09
-4.28708e-09
-4.27482e-09
-4.2624e-09
-4.24984e-09
-4.23714e-09
-4.2243e-09
-4.21132e-09
-4.1982e-09
-4.18495e-09
-4.17155e-09
-4.15801e-09
-4.14432e-09
-4.13048e-09
-4.11648e-09
-4.10232e-09
-4.08799e-09
-4.07347e-09
-4.05876e-09
-4.04383e-09
-4.02868e-09
-4.01328e-09
-3.9976e-09
-3.98163e-09
-3.96533e-09
-3.94867e-09
-3.93161e-09
-3.9141e-09
-3.89611e-09
-3.87757e-09
-3.85843e-09
-3.83862e-09
-3.81806e-09
-3.79668e-09
-3.77438e-09
-3.75106e-09
-3.72662e-09
-3.70093e-09
-3.67386e-09
-3.64527e-09
-3.615e-09
-3.58286e-09
-3.54869e-09
-3.51227e-09
-3.47338e-09
-3.4318e-09
-3.38725e-09
-3.33948e-09
-3.28819e-09
-3.23308e-09
-3.17382e-09
-3.11008e-09
-3.0415e-09
-2.96771e-09
-2.88833e-09
-2.80299e-09
-2.71129e-09
-2.61286e-09
-2.5073e-09
-2.39427e-09
-2.27341e-09
-2.14442e-09
-2.00702e-09
-1.86099e-09
-1.70618e-09
-1.54249e-09
-1.36995e-09
-1.18866e-09
-9.98887e-10
-8.0102e-10
-5.95648e-10
-3.83574e-10
-1.65863e-10
5.61117e-11
2.80603e-10
5.05422e-10
7.27872e-10
9.44678e-10
1.15194e-09
1.34512e-09
1.51909e-09
1.66832e-09
1.78707e-09
1.86982e-09
1.91172e-09
1.90911e-09
1.86005e-09
1.76452e-09
1.62416e-09
1.4428e-09
1.22832e-09
9.94175e-10
7.45291e-10
4.67927e-10
1.88854e-10
3.65165e-11
1.23951e-10
2.29901e-10
3.21485e-10
4.11601e-10
5.59389e-10
7.16222e-10
8.27598e-10
8.97664e-10
9.43753e-10
9.77546e-10
1.0096e-09
1.04895e-09
1.10166e-09
1.17039e-09
1.25488e-09
1.35282e-09
1.46075e-09
1.57482e-09
1.69128e-09
1.80678e-09
1.91845e-09
2.02399e-09
2.12155e-09
2.2097e-09
2.28736e-09
2.35373e-09
2.40824e-09
2.45051e-09
2.48037e-09
2.49773e-09
2.50266e-09
2.49532e-09
2.47599e-09
2.44501e-09
2.40279e-09
2.34981e-09
2.28659e-09
2.2137e-09
2.13173e-09
2.04128e-09
1.94298e-09
1.83745e-09
1.72533e-09
1.60721e-09
1.48371e-09
1.35542e-09
1.22291e-09
1.08673e-09
9.47405e-10
8.05435e-10
6.61301e-10
5.15455e-10
3.68323e-10
2.20308e-10
7.17872e-11
-7.68869e-11
-2.25385e-10
-3.734e-10
-5.20647e-10
-6.66862e-10
-8.11801e-10
-9.5524e-10
-1.09697e-09
-1.23681e-09
-1.37457e-09
-1.51011e-09
-1.64327e-09
-1.77394e-09
-1.90199e-09
-2.02732e-09
-2.14984e-09
-2.26947e-09
-2.38614e-09
-2.49979e-09
-2.61036e-09
-2.71783e-09
-2.82214e-09
-2.92329e-09
-3.02125e-09
-3.116e-09
-3.20756e-09
-3.29592e-09
-3.38108e-09
-3.46307e-09
-3.54191e-09
-3.61762e-09
-3.69023e-09
-3.75978e-09
-3.82631e-09
-3.88986e-09
-3.95047e-09
-4.0082e-09
-4.06311e-09
-4.11524e-09
-4.16466e-09
-4.21144e-09
-4.25563e-09
-4.29731e-09
-4.33654e-09
-4.37339e-09
-4.40793e-09
-4.44024e-09
-4.47039e-09
-4.49847e-09
-4.52453e-09
-4.54865e-09
-4.57093e-09
-4.59142e-09
-4.61021e-09
-4.62737e-09
-4.64298e-09
-4.65712e-09
-4.66985e-09
-4.68125e-09
-4.69139e-09
-4.70035e-09
-4.70819e-09
-4.71499e-09
-4.7208e-09
-4.7257e-09
-4.72975e-09
-4.73301e-09
-4.73554e-09
-4.7374e-09
-4.73864e-09
-4.73933e-09
-4.7395e-09
-4.73921e-09
-4.73851e-09
-4.73745e-09
-4.73606e-09
-4.73438e-09
-4.73246e-09
-4.73034e-09
-4.72804e-09
-4.72559e-09
-4.72303e-09
-4.72038e-09
-4.71768e-09
-4.71493e-09
-4.71216e-09
-4.70939e-09
-4.70664e-09
-4.70392e-09
-4.70125e-09
-4.69863e-09
-4.69607e-09
-4.69358e-09
-4.69117e-09
-4.68884e-09
-4.6866e-09
-4.68444e-09
-4.68236e-09
-4.68037e-09
-4.67845e-09
-4.67662e-09
-4.67486e-09
-4.67316e-09
-4.67153e-09
-4.66994e-09
-4.66841e-09
-4.66691e-09
-4.66544e-09
-4.66399e-09
-4.66255e-09
-4.6611e-09
-4.65965e-09
-4.65817e-09
-4.65666e-09
-4.6551e-09
-4.65349e-09
-4.65181e-09
-4.65005e-09
-4.64821e-09
-4.64626e-09
-4.64421e-09
-4.64204e-09
-4.63973e-09
-4.63729e-09
-4.6347e-09
-4.63196e-09
-4.62905e-09
-4.62596e-09
-4.62269e-09
-4.61924e-09
-4.61559e-09
-4.61174e-09
-4.60768e-09
-4.60341e-09
-4.59892e-09
-4.59421e-09
-4.58928e-09
-4.58412e-09
-4.57872e-09
-4.57309e-09
-4.56723e-09
-4.56112e-09
-4.55478e-09
-4.54821e-09
-4.54139e-09
-4.53433e-09
-4.52704e-09
-4.51951e-09
-4.51174e-09
-4.50374e-09
-4.49551e-09
-4.48705e-09
-4.47837e-09
-4.46946e-09
-4.46033e-09
-4.45099e-09
-4.44143e-09
-4.43167e-09
-4.4217e-09
-4.41153e-09
-4.40117e-09
-4.39061e-09
-4.37987e-09
-4.36895e-09
-4.35785e-09
-4.34657e-09
-4.33513e-09
-4.32353e-09
-4.31176e-09
-4.29984e-09
-4.28776e-09
-4.27554e-09
-4.26317e-09
-4.25066e-09
-4.238e-09
-4.22521e-09
-4.21228e-09
-4.19922e-09
-4.18602e-09
-4.17267e-09
-4.15919e-09
-4.14557e-09
-4.1318e-09
-4.11787e-09
-4.10379e-09
-4.08954e-09
-4.07511e-09
-4.06049e-09
-4.04567e-09
-4.03062e-09
-4.01534e-09
-3.9998e-09
-3.98396e-09
-3.96782e-09
-3.95132e-09
-3.93444e-09
-3.91713e-09
-3.89935e-09
-3.88105e-09
-3.86216e-09
-3.84263e-09
-3.82237e-09
-3.80133e-09
-3.77939e-09
-3.75647e-09
-3.73247e-09
-3.70725e-09
-3.6807e-09
-3.65267e-09
-3.62301e-09
-3.59155e-09
-3.55811e-09
-3.52248e-09
-3.48446e-09
-3.44381e-09
-3.40028e-09
-3.3536e-09
-3.3035e-09
-3.24966e-09
-3.19178e-09
-3.12951e-09
-3.06251e-09
-2.99041e-09
-2.91284e-09
-2.82941e-09
-2.73975e-09
-2.64346e-09
-2.54017e-09
-2.4295e-09
-2.31112e-09
-2.18469e-09
-2.04994e-09
-1.90663e-09
-1.75458e-09
-1.59368e-09
-1.4239e-09
-1.24534e-09
-1.05818e-09
-8.62761e-10
-6.59599e-10
-4.49401e-10
-2.33118e-10
-1.19903e-11
2.12395e-10
4.38031e-10
6.62429e-10
8.82539e-10
1.0947e-09
1.29461e-09
1.47741e-09
1.63775e-09
1.77012e-09
1.86921e-09
1.93039e-09
1.95025e-09
1.92705e-09
1.86094e-09
1.7539e-09
1.60892e-09
1.43203e-09
1.23439e-09
1.01499e-09
7.40216e-10
4.10515e-10
1.587e-10
1.52275e-10
1.99082e-10
2.23435e-10
2.46772e-10
3.62936e-10
5.19301e-10
6.38559e-10
7.19639e-10
7.81388e-10
8.3436e-10
8.87618e-10
9.49118e-10
1.02409e-09
1.11449e-09
1.2195e-09
1.33639e-09
1.46145e-09
1.59068e-09
1.72029e-09
1.84699e-09
1.96803e-09
2.08125e-09
2.18495e-09
2.27788e-09
2.35913e-09
2.42805e-09
2.48423e-09
2.52742e-09
2.55751e-09
2.57458e-09
2.57879e-09
2.57036e-09
2.54966e-09
2.51707e-09
2.47307e-09
2.41819e-09
2.35299e-09
2.27805e-09
2.194e-09
2.10147e-09
2.0011e-09
1.89353e-09
1.77939e-09
1.6593e-09
1.53389e-09
1.40374e-09
1.26943e-09
1.1315e-09
9.90486e-10
8.46889e-10
7.01184e-10
5.53825e-10
4.05233e-10
2.55812e-10
1.05934e-10
-4.40493e-11
-1.93812e-10
-3.43048e-10
-4.91475e-10
-6.38832e-10
-7.84877e-10
-9.29387e-10
-1.07216e-09
-1.213e-09
-1.35174e-09
-1.48822e-09
-1.62231e-09
-1.75387e-09
-1.8828e-09
-2.00897e-09
-2.13232e-09
-2.25275e-09
-2.3702e-09
-2.4846e-09
-2.59591e-09
-2.70409e-09
-2.8091e-09
-2.91092e-09
-3.00954e-09
-3.10493e-09
-3.1971e-09
-3.28606e-09
-3.3718e-09
-3.45435e-09
-3.53373e-09
-3.60996e-09
-3.68307e-09
-3.75311e-09
-3.8201e-09
-3.88409e-09
-3.94513e-09
-4.00327e-09
-4.05857e-09
-4.11107e-09
-4.16085e-09
-4.20796e-09
-4.25247e-09
-4.29445e-09
-4.33396e-09
-4.37108e-09
-4.40587e-09
-4.43842e-09
-4.46879e-09
-4.49706e-09
-4.52331e-09
-4.5476e-09
-4.57003e-09
-4.59067e-09
-4.60959e-09
-4.62687e-09
-4.64258e-09
-4.6568e-09
-4.66961e-09
-4.68107e-09
-4.69127e-09
-4.70028e-09
-4.70815e-09
-4.71497e-09
-4.7208e-09
-4.72571e-09
-4.72976e-09
-4.73301e-09
-4.73552e-09
-4.73736e-09
-4.73858e-09
-4.73923e-09
-4.73937e-09
-4.73904e-09
-4.7383e-09
-4.73718e-09
-4.73574e-09
-4.73402e-09
-4.73205e-09
-4.72986e-09
-4.72751e-09
-4.725e-09
-4.72239e-09
-4.71968e-09
-4.71692e-09
-4.71411e-09
-4.71129e-09
-4.70847e-09
-4.70566e-09
-4.70289e-09
-4.70017e-09
-4.6975e-09
-4.6949e-09
-4.69237e-09
-4.68992e-09
-4.68755e-09
-4.68528e-09
-4.68308e-09
-4.68098e-09
-4.67896e-09
-4.67703e-09
-4.67517e-09
-4.6734e-09
-4.67169e-09
-4.67004e-09
-4.66846e-09
-4.66692e-09
-4.66542e-09
-4.66395e-09
-4.66251e-09
-4.66107e-09
-4.65964e-09
-4.6582e-09
-4.65674e-09
-4.65524e-09
-4.65371e-09
-4.65212e-09
-4.65047e-09
-4.64874e-09
-4.64692e-09
-4.64501e-09
-4.64299e-09
-4.64085e-09
-4.63858e-09
-4.63618e-09
-4.63363e-09
-4.63092e-09
-4.62805e-09
-4.62501e-09
-4.62178e-09
-4.61837e-09
-4.61476e-09
-4.61096e-09
-4.60694e-09
-4.60272e-09
-4.59827e-09
-4.59361e-09
-4.58872e-09
-4.5836e-09
-4.57825e-09
-4.57266e-09
-4.56685e-09
-4.56079e-09
-4.55449e-09
-4.54795e-09
-4.54118e-09
-4.53417e-09
-4.52691e-09
-4.51943e-09
-4.5117e-09
-4.50374e-09
-4.49555e-09
-4.48713e-09
-4.47849e-09
-4.46962e-09
-4.46053e-09
-4.45122e-09
-4.4417e-09
-4.43198e-09
-4.42205e-09
-4.41192e-09
-4.40159e-09
-4.39107e-09
-4.38037e-09
-4.36948e-09
-4.35841e-09
-4.34718e-09
-4.33577e-09
-4.3242e-09
-4.31247e-09
-4.30059e-09
-4.28855e-09
-4.27637e-09
-4.26404e-09
-4.25157e-09
-4.23897e-09
-4.22622e-09
-4.21334e-09
-4.20033e-09
-4.18718e-09
-4.1739e-09
-4.16048e-09
-4.14692e-09
-4.13322e-09
-4.11937e-09
-4.10537e-09
-4.09121e-09
-4.07688e-09
-4.06237e-09
-4.04766e-09
-4.03274e-09
-4.01759e-09
-4.0022e-09
-3.98653e-09
-3.97056e-09
-3.95425e-09
-3.93759e-09
-3.92051e-09
-3.90299e-09
-3.88497e-09
-3.86639e-09
-3.8472e-09
-3.82731e-09
-3.80667e-09
-3.78518e-09
-3.76275e-09
-3.73928e-09
-3.71465e-09
-3.68874e-09
-3.66141e-09
-3.63251e-09
-3.60189e-09
-3.56935e-09
-3.53471e-09
-3.49776e-09
-3.45827e-09
-3.416e-09
-3.37069e-09
-3.32207e-09
-3.26983e-09
-3.21366e-09
-3.15324e-09
-3.08822e-09
-3.01824e-09
-2.94294e-09
-2.86192e-09
-2.77481e-09
-2.68123e-09
-2.58078e-09
-2.47311e-09
-2.35784e-09
-2.23466e-09
-2.10326e-09
-1.96339e-09
-1.81484e-09
-1.65747e-09
-1.49123e-09
-1.31613e-09
-1.13232e-09
-9.40059e-10
-7.3977e-10
-5.32049e-10
-3.17716e-10
-9.78525e-11
1.2614e-10
3.52469e-10
5.78883e-10
8.02594e-10
1.02021e-09
1.22771e-09
1.42046e-09
1.59335e-09
1.74098e-09
1.85812e-09
1.94011e-09
1.98345e-09
1.98623e-09
1.94834e-09
1.87059e-09
1.75532e-09
1.60649e-09
1.43343e-09
1.2332e-09
9.60368e-10
5.9232e-10
2.6332e-10
2.05701e-10
2.16167e-10
1.88356e-10
1.44514e-10
2.21432e-10
3.71354e-10
4.93574e-10
5.80652e-10
6.53662e-10
7.22319e-10
7.94118e-10
8.75792e-10
9.71606e-10
1.0827e-09
1.20758e-09
1.34299e-09
1.48485e-09
1.62896e-09
1.77145e-09
1.90903e-09
2.03905e-09
2.15947e-09
2.26876e-09
2.36585e-09
2.44999e-09
2.52069e-09
2.5777e-09
2.62094e-09
2.65041e-09
2.66631e-09
2.66889e-09
2.65849e-09
2.63552e-09
2.60046e-09
2.55385e-09
2.49625e-09
2.42826e-09
2.35052e-09
2.26367e-09
2.16837e-09
2.06527e-09
1.95503e-09
1.83829e-09
1.71569e-09
1.58785e-09
1.45535e-09
1.31878e-09
1.17868e-09
1.03559e-09
8.89997e-10
7.42381e-10
5.9319e-10
4.42844e-10
2.91741e-10
1.40253e-10
-1.12739e-11
-1.62516e-10
-3.13173e-10
-4.62964e-10
-6.1163e-10
-7.58934e-10
-9.04656e-10
-1.04859e-09
-1.19056e-09
-1.33038e-09
-1.46791e-09
-1.60301e-09
-1.73554e-09
-1.8654e-09
-1.99249e-09
-2.11671e-09
-2.23799e-09
-2.35625e-09
-2.47145e-09
-2.58352e-09
-2.69244e-09
-2.79816e-09
-2.90066e-09
-2.99994e-09
-3.09597e-09
-3.18875e-09
-3.2783e-09
-3.36461e-09
-3.4477e-09
-3.5276e-09
-3.60433e-09
-3.67792e-09
-3.74841e-09
-3.81583e-09
-3.88024e-09
-3.94167e-09
-4.00018e-09
-4.05583e-09
-4.10867e-09
-4.15876e-09
-4.20616e-09
-4.25094e-09
-4.29317e-09
-4.33292e-09
-4.37026e-09
-4.40525e-09
-4.43798e-09
-4.46852e-09
-4.49694e-09
-4.52332e-09
-4.54774e-09
-4.57027e-09
-4.591e-09
-4.60999e-09
-4.62734e-09
-4.6431e-09
-4.65736e-09
-4.6702e-09
-4.68168e-09
-4.69189e-09
-4.70089e-09
-4.70876e-09
-4.71556e-09
-4.72136e-09
-4.72623e-09
-4.73024e-09
-4.73345e-09
-4.73591e-09
-4.73769e-09
-4.73885e-09
-4.73943e-09
-4.7395e-09
-4.7391e-09
-4.73829e-09
-4.7371e-09
-4.73558e-09
-4.73378e-09
-4.73173e-09
-4.72947e-09
-4.72704e-09
-4.72446e-09
-4.72177e-09
-4.71899e-09
-4.71615e-09
-4.71328e-09
-4.71039e-09
-4.7075e-09
-4.70464e-09
-4.70181e-09
-4.69903e-09
-4.69631e-09
-4.69366e-09
-4.69109e-09
-4.6886e-09
-4.68619e-09
-4.68388e-09
-4.68166e-09
-4.67953e-09
-4.67749e-09
-4.67554e-09
-4.67367e-09
-4.67188e-09
-4.67016e-09
-4.66852e-09
-4.66693e-09
-4.66539e-09
-4.6639e-09
-4.66245e-09
-4.66101e-09
-4.6596e-09
-4.65818e-09
-4.65676e-09
-4.65533e-09
-4.65386e-09
-4.65235e-09
-4.65079e-09
-4.64917e-09
-4.64748e-09
-4.6457e-09
-4.64383e-09
-4.64185e-09
-4.63975e-09
-4.63753e-09
-4.63517e-09
-4.63266e-09
-4.63e-09
-4.62717e-09
-4.62418e-09
-4.621e-09
-4.61763e-09
-4.61408e-09
-4.61032e-09
-4.60635e-09
-4.60217e-09
-4.59777e-09
-4.59316e-09
-4.58831e-09
-4.58324e-09
-4.57794e-09
-4.5724e-09
-4.56662e-09
-4.56061e-09
-4.55436e-09
-4.54786e-09
-4.54113e-09
-4.53416e-09
-4.52695e-09
-4.5195e-09
-4.51181e-09
-4.50389e-09
-4.49574e-09
-4.48736e-09
-4.47875e-09
-4.46992e-09
-4.46087e-09
-4.4516e-09
-4.44211e-09
-4.43242e-09
-4.42252e-09
-4.41243e-09
-4.40213e-09
-4.39165e-09
-4.38098e-09
-4.37012e-09
-4.35909e-09
-4.34788e-09
-4.33651e-09
-4.32498e-09
-4.31328e-09
-4.30144e-09
-4.28944e-09
-4.27729e-09
-4.265e-09
-4.25258e-09
-4.24001e-09
-4.22731e-09
-4.21448e-09
-4.20152e-09
-4.18843e-09
-4.17521e-09
-4.16185e-09
-4.14836e-09
-4.13474e-09
-4.12097e-09
-4.10706e-09
-4.093e-09
-4.07877e-09
-4.06437e-09
-4.04979e-09
-4.03501e-09
-4.02002e-09
-4.00479e-09
-3.98931e-09
-3.97354e-09
-3.95746e-09
-3.94104e-09
-3.92424e-09
-3.90701e-09
-3.88931e-09
-3.87109e-09
-3.85229e-09
-3.83285e-09
-3.81268e-09
-3.79171e-09
-3.76985e-09
-3.74701e-09
-3.72307e-09
-3.69791e-09
-3.6714e-09
-3.64341e-09
-3.61376e-09
-3.58229e-09
-3.54882e-09
-3.51313e-09
-3.47502e-09
-3.43425e-09
-3.39057e-09
-3.3437e-09
-3.29335e-09
-3.23923e-09
-3.181e-09
-3.11834e-09
-3.05088e-09
-2.97827e-09
-2.90013e-09
-2.81607e-09
-2.72571e-09
-2.62867e-09
-2.52457e-09
-2.41304e-09
-2.29375e-09
-2.16638e-09
-2.03064e-09
-1.88632e-09
-1.73322e-09
-1.57125e-09
-1.40038e-09
-1.22067e-09
-1.03231e-09
-8.35624e-10
-6.31078e-10
-4.19351e-10
-2.01353e-10
2.17134e-11
2.48283e-10
4.76358e-10
7.03423e-10
9.26368e-10
1.14144e-09
1.34424e-09
1.5298e-09
1.69284e-09
1.82804e-09
1.93055e-09
1.99652e-09
2.02353e-09
2.01079e-09
1.95862e-09
1.86791e-09
1.74123e-09
1.58704e-09
1.40356e-09
1.13991e-09
7.52646e-10
3.69938e-10
2.84765e-10
2.80209e-10
2.17498e-10
1.09529e-10
1.41127e-10
2.7874e-10
3.98815e-10
4.8646e-10
5.6569e-10
6.45783e-10
7.32677e-10
8.31782e-10
9.46299e-10
1.07644e-09
1.21991e-09
1.37285e-09
1.53073e-09
1.68905e-09
1.84382e-09
1.9917e-09
2.13012e-09
2.25713e-09
2.37137e-09
2.47193e-09
2.55822e-09
2.62995e-09
2.68702e-09
2.72948e-09
2.75751e-09
2.77141e-09
2.77154e-09
2.75833e-09
2.7323e-09
2.69398e-09
2.64398e-09
2.58292e-09
2.51144e-09
2.43021e-09
2.33992e-09
2.24122e-09
2.13481e-09
2.02136e-09
1.9015e-09
1.7759e-09
1.64516e-09
1.50989e-09
1.37066e-09
1.22802e-09
1.0825e-09
9.34588e-10
7.8476e-10
6.33458e-10
4.81101e-10
3.28079e-10
1.7476e-10
2.14863e-11
-1.31423e-10
-2.83672e-10
-4.34983e-10
-5.85105e-10
-7.33802e-10
-8.80855e-10
-1.02607e-09
-1.16926e-09
-1.31025e-09
-1.44891e-09
-1.58508e-09
-1.71866e-09
-1.84951e-09
-1.97756e-09
-2.1027e-09
-2.22486e-09
-2.34398e-09
-2.45999e-09
-2.57285e-09
-2.68252e-09
-2.78896e-09
-2.89216e-09
-2.9921e-09
-3.08877e-09
-3.18216e-09
-3.27229e-09
-3.35915e-09
-3.44278e-09
-3.52318e-09
-3.60039e-09
-3.67444e-09
-3.74536e-09
-3.81319e-09
-3.87798e-09
-3.93978e-09
-3.99863e-09
-4.05459e-09
-4.10773e-09
-4.15809e-09
-4.20575e-09
-4.25077e-09
-4.29321e-09
-4.33316e-09
-4.37067e-09
-4.40582e-09
-4.43869e-09
-4.46935e-09
-4.49788e-09
-4.52436e-09
-4.54886e-09
-4.57145e-09
-4.59223e-09
-4.61126e-09
-4.62862e-09
-4.6444e-09
-4.65866e-09
-4.67148e-09
-4.68294e-09
-4.69312e-09
-4.70208e-09
-4.7099e-09
-4.71664e-09
-4.72238e-09
-4.72719e-09
-4.73112e-09
-4.73425e-09
-4.73663e-09
-4.73832e-09
-4.73939e-09
-4.73988e-09
-4.73985e-09
-4.73936e-09
-4.73845e-09
-4.73716e-09
-4.73555e-09
-4.73365e-09
-4.7315e-09
-4.72915e-09
-4.72662e-09
-4.72395e-09
-4.72117e-09
-4.71831e-09
-4.71539e-09
-4.71243e-09
-4.70947e-09
-4.70651e-09
-4.70358e-09
-4.70069e-09
-4.69785e-09
-4.69507e-09
-4.69237e-09
-4.68975e-09
-4.68722e-09
-4.68478e-09
-4.68243e-09
-4.68018e-09
-4.67803e-09
-4.67597e-09
-4.674e-09
-4.67212e-09
-4.67032e-09
-4.66861e-09
-4.66696e-09
-4.66538e-09
-4.66385e-09
-4.66237e-09
-4.66093e-09
-4.65952e-09
-4.65812e-09
-4.65674e-09
-4.65534e-09
-4.65394e-09
-4.6525e-09
-4.65103e-09
-4.64951e-09
-4.64793e-09
-4.64628e-09
-4.64455e-09
-4.64272e-09
-4.64078e-09
-4.63873e-09
-4.63656e-09
-4.63424e-09
-4.63179e-09
-4.62918e-09
-4.6264e-09
-4.62345e-09
-4.62033e-09
-4.61701e-09
-4.61351e-09
-4.6098e-09
-4.60588e-09
-4.60175e-09
-4.5974e-09
-4.59283e-09
-4.58804e-09
-4.58302e-09
-4.57776e-09
-4.57227e-09
-4.56654e-09
-4.56057e-09
-4.55436e-09
-4.54791e-09
-4.54122e-09
-4.53429e-09
-4.52712e-09
-4.51971e-09
-4.51206e-09
-4.50418e-09
-4.49606e-09
-4.48772e-09
-4.47914e-09
-4.47034e-09
-4.46132e-09
-4.45208e-09
-4.44263e-09
-4.43297e-09
-4.42311e-09
-4.41304e-09
-4.40277e-09
-4.39232e-09
-4.38168e-09
-4.37085e-09
-4.35985e-09
-4.34868e-09
-4.33733e-09
-4.32583e-09
-4.31417e-09
-4.30235e-09
-4.29039e-09
-4.27828e-09
-4.26603e-09
-4.25364e-09
-4.24112e-09
-4.22847e-09
-4.21569e-09
-4.20278e-09
-4.18974e-09
-4.17658e-09
-4.16329e-09
-4.14988e-09
-4.13633e-09
-4.12265e-09
-4.10884e-09
-4.09488e-09
-4.08077e-09
-4.06649e-09
-4.05205e-09
-4.03742e-09
-4.0226e-09
-4.00756e-09
-3.99228e-09
-3.97674e-09
-3.96091e-09
-3.94476e-09
-3.92827e-09
-3.91137e-09
-3.89405e-09
-3.87623e-09
-3.85788e-09
-3.83892e-09
-3.81929e-09
-3.79892e-09
-3.77771e-09
-3.75558e-09
-3.73242e-09
-3.70812e-09
-3.68255e-09
-3.65558e-09
-3.62705e-09
-3.59681e-09
-3.56466e-09
-3.53043e-09
-3.4939e-09
-3.45484e-09
-3.41301e-09
-3.36814e-09
-3.31997e-09
-3.26819e-09
-3.21248e-09
-3.15253e-09
-3.08797e-09
-3.01846e-09
-2.94362e-09
-2.86307e-09
-2.77643e-09
-2.68332e-09
-2.58335e-09
-2.47615e-09
-2.36137e-09
-2.23867e-09
-2.10775e-09
-1.96835e-09
-1.82026e-09
-1.66332e-09
-1.49744e-09
-1.32262e-09
-1.13896e-09
-9.46668e-10
-7.46095e-10
-5.37767e-10
-3.22421e-10
-1.01054e-10
1.24996e-10
3.53987e-10
5.8367e-10
8.1121e-10
1.0331e-09
1.24516e-09
1.44255e-09
1.61999e-09
1.77202e-09
1.89351e-09
1.98012e-09
2.02882e-09
2.03809e-09
2.00764e-09
1.93754e-09
1.8295e-09
1.69187e-09
1.52609e-09
1.28109e-09
8.9492e-10
4.8181e-10
3.84179e-10
3.83747e-10
3.05172e-10
1.40484e-10
1.23762e-10
2.44689e-10
3.58447e-10
4.41754e-10
5.22246e-10
6.09296e-10
7.07408e-10
8.2065e-10
9.51107e-10
1.098e-09
1.25817e-09
1.42706e-09
1.59962e-09
1.77102e-09
1.93706e-09
2.09435e-09
2.24031e-09
2.37311e-09
2.4915e-09
2.59473e-09
2.68239e-09
2.75434e-09
2.81066e-09
2.85155e-09
2.87734e-09
2.88844e-09
2.88533e-09
2.86856e-09
2.83872e-09
2.79643e-09
2.74234e-09
2.67715e-09
2.60155e-09
2.51623e-09
2.4219e-09
2.31928e-09
2.20904e-09
2.09188e-09
1.96846e-09
1.83943e-09
1.7054e-09
1.56698e-09
1.42475e-09
1.27925e-09
1.131e-09
9.80489e-10
8.28194e-10
6.74545e-10
5.19957e-10
3.64816e-10
2.09482e-10
5.42914e-11
-1.00442e-10
-2.54425e-10
-4.07389e-10
-5.59086e-10
-7.09283e-10
-8.57767e-10
-1.00435e-09