/*--------------------------------*- C++ -*----------------------------------*\
| =========                 |                                                 |
| \\      /  F ield         | OpenFOAM: The Open Source CFD Toolbox           |
|  \\    /   O peration     | Version:  2112                                  |
|   \\  /    A nd           | Website:  www.openfoam.com                      |
|    \\/     M anipulation  |                                                 |
\*---------------------------------------------------------------------------*/
FoamFile
{
    version     2.0;
    format      ascii;
    arch        "LSB;label=32;scalar=64";
    class       surfaceScalarField;
    location    "5.98";
    object      phi;
}
// * * * * * * * * * * * * * * * * * * * * * * * * * * * * * * * * * * * * * //

dimensions      [0 3 -1 0 0 0 0];

oriented        oriented;

internalField   nonuniform List<scalar> 
50800
(
0.000471121
1.79904e-12
0.000471121
-9.46486e-13
0.000471121
-2.68775e-12
0.000471121
-3.22815e-12
0.000471121
-3.16241e-12
0.000471121
-2.91418e-12
0.000471121
-2.62076e-12
0.000471121
-2.32491e-12
0.000471121
-2.04809e-12
0.000471121
-1.79622e-12
0.000471121
-1.57018e-12
0.000471121
-1.36921e-12
0.000471121
-1.1917e-12
0.000471121
-1.03551e-12
0.000471121
-8.98174e-13
0.000471121
-7.77179e-13
0.000471121
-6.70187e-13
0.000471121
-5.75141e-13
0.000471121
-4.90309e-13
0.000471121
-4.14274e-13
0.000471121
-3.45889e-13
0.000471121
-2.84221e-13
0.000471121
-2.28505e-13
0.000471121
-1.78102e-13
0.000471121
-1.32465e-13
0.000471121
-9.11253e-14
0.000471121
-5.38113e-14
0.000471121
-2.00581e-14
0.000471121
1.15819e-14
0.000471121
3.90452e-14
0.000471121
6.43322e-14
0.000471121
8.72842e-14
0.000471121
1.08082e-13
0.000471121
1.26917e-13
0.000471121
1.43957e-13
0.000471121
1.59352e-13
0.000471121
1.73241e-13
0.000471121
1.85745e-13
0.000471121
1.96973e-13
0.000471121
2.07025e-13
0.000471121
2.15988e-13
0.000471121
2.23943e-13
0.000471121
2.30963e-13
0.000471121
2.37114e-13
0.000471121
2.42455e-13
0.000471121
2.47043e-13
0.000471121
2.50928e-13
0.000471121
2.54157e-13
0.000471121
2.56771e-13
0.000471121
2.58811e-13
0.000471121
2.60314e-13
0.000471121
2.61315e-13
0.000471121
2.61844e-13
0.000471121
2.61931e-13
0.000471121
2.61605e-13
0.000471121
2.60889e-13
0.000471121
2.59811e-13
0.000471121
2.58392e-13
0.000471121
2.56653e-13
0.000471121
2.54614e-13
0.000471121
2.52295e-13
0.000471121
2.49716e-13
0.000471121
2.46891e-13
0.000471121
2.43837e-13
0.000471121
2.40572e-13
0.000471121
2.37108e-13
0.000471121
2.33461e-13
0.000471121
2.29644e-13
0.000471121
2.25671e-13
0.000471121
2.21554e-13
0.000471121
2.17305e-13
0.000471121
2.12936e-13
0.000471121
2.0846e-13
0.000471121
2.03887e-13
0.000471121
1.99227e-13
0.000471121
1.9449e-13
0.000471121
1.89689e-13
0.000471121
1.84831e-13
0.000471121
1.79927e-13
0.000471121
1.74986e-13
0.000471121
1.70015e-13
0.000471121
1.65026e-13
0.000471121
1.60027e-13
0.000471121
1.55025e-13
0.000471121
1.5003e-13
0.000471121
1.45047e-13
0.000471121
1.40084e-13
0.000471121
1.35152e-13
0.000471121
1.30256e-13
0.000471121
1.254e-13
0.000471121
1.20593e-13
0.000471121
1.15841e-13
0.000471121
1.11152e-13
0.000471121
1.06529e-13
0.000471121
1.01976e-13
0.000471121
9.7502e-14
0.000471121
9.3112e-14
0.000471121
8.88072e-14
0.000471121
8.45954e-14
0.000471121
8.04782e-14
0.000471121
7.6458e-14
0.000471121
7.25431e-14
0.000471121
6.87339e-14
0.000471121
6.50332e-14
0.000471121
6.14448e-14
0.000471121
5.79669e-14
0.000471121
5.46045e-14
0.000471121
5.13616e-14
0.000471121
4.8237e-14
0.000471121
4.52307e-14
0.000471121
4.23444e-14
0.000471121
3.95771e-14
0.000471121
3.69335e-14
0.000471121
3.44118e-14
0.000471121
3.20077e-14
0.000471121
2.97239e-14
0.000471121
2.75603e-14
0.000471121
2.55152e-14
0.000471121
2.35856e-14
0.000471121
2.17711e-14
0.000471121
2.00713e-14
0.000471121
1.8481e-14
0.000471121
1.70013e-14
0.000471121
1.5631e-14
0.000471121
1.43625e-14
0.000471121
1.3194e-14
0.000471121
1.21251e-14
0.000471121
1.11547e-14
0.000471121
1.0275e-14
0.000471121
9.48414e-15
0.000471121
8.78058e-15
0.000471121
8.15874e-15
0.000471121
7.61711e-15
0.000471121
7.15116e-15
0.000471121
6.75635e-15
0.000471121
6.43025e-15
0.000471121
6.16703e-15
0.000471121
5.96741e-15
0.000471121
5.82623e-15
0.000471121
5.7345e-15
0.000471121
5.69412e-15
0.000471121
5.70113e-15
0.000471121
5.75129e-15
0.000471121
5.83913e-15
0.000471121
5.96289e-15
0.000471121
6.11882e-15
0.000471121
6.30067e-15
0.000471121
6.51147e-15
0.000471121
6.74507e-15
0.000471121
6.99499e-15
0.000471121
7.26134e-15
0.000471121
7.54042e-15
0.000471121
7.83166e-15
0.000471121
8.13068e-15
0.000471121
8.43219e-15
0.000471121
8.73721e-15
0.000471121
9.04207e-15
0.000471121
9.34732e-15
0.000471121
9.64856e-15
0.000471121
9.94184e-15
0.000471121
1.02288e-14
0.000471121
1.05044e-14
0.000471121
1.07711e-14
0.000471121
1.10268e-14
0.000471121
1.12637e-14
0.000471121
1.14894e-14
0.000471121
1.16998e-14
0.000471121
1.18915e-14
0.000471121
1.2067e-14
0.000471121
1.2224e-14
0.000471121
1.23611e-14
0.000471121
1.24779e-14
0.000471121
1.25789e-14
0.000471121
1.26557e-14
0.000471121
1.27115e-14
0.000471121
1.27523e-14
0.000471121
1.27662e-14
0.000471121
1.27625e-14
0.000471121
1.27409e-14
0.000471121
1.26964e-14
0.000471121
1.26314e-14
0.000471121
1.25462e-14
0.000471121
1.24448e-14
0.000471121
1.23246e-14
0.000471121
1.21846e-14
0.000471121
1.20274e-14
0.000471121
1.18506e-14
0.000471121
1.166e-14
0.000471121
1.14548e-14
0.000471121
1.12289e-14
0.000471121
1.09918e-14
0.000471121
1.07416e-14
0.000471121
1.04762e-14
0.000471121
1.01992e-14
0.000471121
9.90961e-15
0.000471121
9.60781e-15
0.000471121
9.29471e-15
0.000471121
8.97603e-15
0.000471121
8.6436e-15
0.000471121
8.30147e-15
0.000471121
7.9572e-15
0.000471121
7.60029e-15
0.000471121
7.23793e-15
0.000471121
6.87237e-15
0.000471121
6.49794e-15
0.000471121
6.11972e-15
0.000471121
5.73688e-15
0.000471121
5.35158e-15
0.000471121
4.96211e-15
0.000471121
4.56864e-15
0.000471121
4.17477e-15
0.000471121
3.77641e-15
0.000471121
3.3777e-15
0.000471121
2.97796e-15
0.000471121
2.57601e-15
0.000471121
2.17697e-15
0.000471121
1.77572e-15
0.000471121
1.37372e-15
0.000471121
9.7094e-16
0.000471121
5.71002e-16
0.000471121
1.75013e-16
0.000471121
-2.27085e-16
0.000471121
-6.22546e-16
0.000471121
-1.02168e-15
0.000471121
-1.41998e-15
0.000471121
-1.80823e-15
0.000471121
-2.20386e-15
0.000471121
-2.59475e-15
0.000471121
-2.98398e-15
0.000471121
-3.37523e-15
0.000471121
-3.75738e-15
0.000471121
-4.14308e-15
0.000471121
-4.52882e-15
0.000471121
-4.90863e-15
0.000471121
-5.29005e-15
0.000471121
-5.66829e-15
0.000471121
-6.04736e-15
0.000471121
-6.42505e-15
0.000471121
-6.80135e-15
0.000471121
-7.1777e-15
0.000471121
-7.55038e-15
0.000471121
-7.92494e-15
0.000471121
-8.29974e-15
0.000471121
-8.67686e-15
0.000471121
-9.05332e-15
0.000471121
-9.42631e-15
0.000471121
-9.80783e-15
0.000471121
-1.01846e-14
0.000471121
-1.0569e-14
0.000471121
-1.09576e-14
0.000471121
-1.13408e-14
0.000471121
-1.17384e-14
0.000471121
-1.21379e-14
0.000471121
-1.25433e-14
0.000471121
-1.29609e-14
0.000471121
-1.33795e-14
0.000471121
-1.38143e-14
0.000471121
-1.42635e-14
0.000471121
-1.47216e-14
0.000471121
-1.51989e-14
0.000471121
-1.56925e-14
0.000471121
-1.62097e-14
0.000471121
-1.67523e-14
0.000471121
-1.73218e-14
0.000471121
-1.79244e-14
0.000471121
-1.85615e-14
0.000471121
-1.92412e-14
0.000471121
-1.99689e-14
0.000471121
-2.07518e-14
0.000471121
-2.15965e-14
0.000471121
-2.25051e-14
0.000471121
-2.34985e-14
0.000471121
-2.45776e-14
0.000471121
-2.57607e-14
0.000471121
-2.70587e-14
0.000471121
-2.84774e-14
0.000471121
-3.00487e-14
0.000471121
-3.17809e-14
0.000471121
-3.36969e-14
0.000471121
-3.58211e-14
0.000471121
-3.81686e-14
0.000471121
-4.07765e-14
0.000471121
-4.36726e-14
0.000471121
-4.68844e-14
0.000471121
-5.04493e-14
0.000471121
-5.44001e-14
0.000471121
-5.8783e-14
0.000471121
-6.36359e-14
0.000471121
-6.9003e-14
0.000471121
-7.49282e-14
0.000471121
-8.14609e-14
0.000471121
-8.86574e-14
0.000471121
-9.65619e-14
0.000471121
-1.05231e-13
0.000471121
-1.14719e-13
0.000471121
-1.25071e-13
0.000471121
-1.36344e-13
0.000471121
-1.48562e-13
0.000471121
-1.61743e-13
0.000471121
-1.75856e-13
0.000471121
-1.90796e-13
0.000471121
-2.06376e-13
0.000471121
-2.22219e-13
0.000471121
-2.37705e-13
0.000471121
-2.51841e-13
0.000471121
-2.6307e-13
0.000471121
-2.69047e-13
0.000471121
-2.66291e-13
0.000471121
-2.49381e-13
0.000471121
-2.09979e-13
0.000471121
-1.34835e-13
0.000471121
1.32278e-14
0.000471121
2.25183e-13
0.000471121
5.81648e-13
0.000471121
1.13155e-12
0.000471121
1.93677e-12
0.000471121
3.01738e-12
0.000471121
4.21249e-12
0.000471121
4.88684e-12
4.13102e-12
0.00138977
5.82272e-12
0.00138977
-1.47258e-12
0.00138977
-6.81524e-12
0.00138977
-9.18273e-12
0.00138977
-9.64758e-12
0.00138977
-9.32697e-12
0.00138977
-8.68708e-12
0.00138977
-7.91992e-12
0.00138977
-7.13117e-12
0.00138977
-6.36912e-12
0.00138977
-5.65468e-12
0.00138977
-4.9962e-12
0.00138977
-4.39573e-12
0.00138977
-3.8518e-12
0.00138977
-3.36102e-12
0.00138977
-2.91907e-12
0.00138977
-2.52129e-12
0.00138977
-2.16315e-12
0.00138977
-1.84042e-12
0.00138977
-1.54931e-12
0.00138977
-1.28644e-12
0.00138977
-1.04887e-12
0.00138977
-8.34006e-13
0.00138977
-6.39591e-13
0.00138977
-4.63617e-13
0.00138977
-3.04317e-13
0.00138977
-1.60117e-13
0.00138977
-2.97351e-14
0.00138977
8.87421e-14
0.00138977
1.95531e-13
0.00138977
2.92123e-13
0.00138977
3.79433e-13
0.00138977
4.58257e-13
0.00138977
5.29339e-13
0.00138977
5.93344e-13
0.00138977
6.50874e-13
0.00138977
7.02476e-13
0.00138977
7.48638e-13
0.00138977
7.89802e-13
0.00138977
8.26369e-13
0.00138977
8.58698e-13
0.00138977
8.87117e-13
0.00138977
9.11923e-13
0.00138977
9.33385e-13
0.00138977
9.51749e-13
0.00138977
9.67238e-13
0.00138977
9.80058e-13
0.00138977
9.90394e-13
0.00138977
9.98417e-13
0.00138977
1.00429e-12
0.00138977
1.00815e-12
0.00138977
1.01014e-12
0.00138977
1.01038e-12
0.00138977
1.00898e-12
0.00138977
1.00606e-12
0.00138977
1.00171e-12
0.00138977
9.96032e-13
0.00138977
9.89105e-13
0.00138977
9.81013e-13
0.00138977
9.71833e-13
0.00138977
9.61639e-13
0.00138977
9.50501e-13
0.00138977
9.38483e-13
0.00138977
9.25646e-13
0.00138977
9.12052e-13
0.00138977
8.97754e-13
0.00138977
8.8281e-13
0.00138977
8.6727e-13
0.00138977
8.51184e-13
0.00138977
8.34598e-13
0.00138977
8.17561e-13
0.00138977
8.0012e-13
0.00138977
7.82315e-13
0.00138977
7.64189e-13
0.00138977
7.45782e-13
0.00138977
7.27133e-13
0.00138977
7.08282e-13
0.00138977
6.89265e-13
0.00138977
6.70117e-13
0.00138977
6.50874e-13
0.00138977
6.31571e-13
0.00138977
6.12238e-13
0.00138977
5.92911e-13
0.00138977
5.73619e-13
0.00138977
5.54394e-13
0.00138977
5.35261e-13
0.00138977
5.16249e-13
0.00138977
4.97389e-13
0.00138977
4.78704e-13
0.00138977
4.60216e-13
0.00138977
4.41951e-13
0.00138977
4.23935e-13
0.00138977
4.06188e-13
0.00138977
3.8873e-13
0.00138977
3.71578e-13
0.00138977
3.54751e-13
0.00138977
3.38272e-13
0.00138977
3.22152e-13
0.00138977
3.06407e-13
0.00138977
2.91051e-13
0.00138977
2.76094e-13
0.00138977
2.61553e-13
0.00138977
2.47437e-13
0.00138977
2.33754e-13
0.00138977
2.20513e-13
0.00138977
2.07715e-13
0.00138977
1.9537e-13
0.00138977
1.83488e-13
0.00138977
1.7207e-13
0.00138977
1.61112e-13
0.00138977
1.50619e-13
0.00138977
1.4059e-13
0.00138977
1.31029e-13
0.00138977
1.21933e-13
0.00138977
1.13294e-13
0.00138977
1.05112e-13
0.00138977
9.73832e-14
0.00138977
9.01012e-14
0.00138977
8.32597e-14
0.00138977
7.68511e-14
0.00138977
7.08666e-14
0.00138977
6.52968e-14
0.00138977
6.01383e-14
0.00138977
5.53795e-14
0.00138977
5.10012e-14
0.00138977
4.69974e-14
0.00138977
4.33578e-14
0.00138977
4.00713e-14
0.00138977
3.71221e-14
0.00138977
3.44976e-14
0.00138977
3.21864e-14
0.00138977
3.01726e-14
0.00138977
2.84454e-14
0.00138977
2.69894e-14
0.00138977
2.57881e-14
0.00138977
2.48298e-14
0.00138977
2.40983e-14
0.00138977
2.35848e-14
0.00138977
2.32732e-14
0.00138977
2.31415e-14
0.00138977
2.31839e-14
0.00138977
2.33855e-14
0.00138977
2.3735e-14
0.00138977
2.42153e-14
0.00138977
2.48108e-14
0.00138977
2.55119e-14
0.00138977
2.63034e-14
0.00138977
2.7181e-14
0.00138977
2.81289e-14
0.00138977
2.91302e-14
0.00138977
3.01779e-14
0.00138977
3.12621e-14
0.00138977
3.23755e-14
0.00138977
3.35039e-14
0.00138977
3.46361e-14
0.00138977
3.57701e-14
0.00138977
3.68948e-14
0.00138977
3.80025e-14
0.00138977
3.90882e-14
0.00138977
4.01393e-14
0.00138977
4.11529e-14
0.00138977
4.21231e-14
0.00138977
4.30485e-14
0.00138977
4.39184e-14
0.00138977
4.47265e-14
0.00138977
4.54794e-14
0.00138977
4.61648e-14
0.00138977
4.67835e-14
0.00138977
4.73333e-14
0.00138977
4.78096e-14
0.00138977
4.82104e-14
0.00138977
4.85335e-14
0.00138977
4.87869e-14
0.00138977
4.89594e-14
0.00138977
4.9052e-14
0.00138977
4.90733e-14
0.00138977
4.90103e-14
0.00138977
4.88737e-14
0.00138977
4.86651e-14
0.00138977
4.83767e-14
0.00138977
4.80157e-14
0.00138977
4.75816e-14
0.00138977
4.70799e-14
0.00138977
4.65113e-14
0.00138977
4.58753e-14
0.00138977
4.51737e-14
0.00138977
4.44069e-14
0.00138977
4.35865e-14
0.00138977
4.27079e-14
0.00138977
4.1769e-14
0.00138977
4.07843e-14
0.00138977
3.97482e-14
0.00138977
3.86661e-14
0.00138977
3.75424e-14
0.00138977
3.63743e-14
0.00138977
3.51657e-14
0.00138977
3.39192e-14
0.00138977
3.26454e-14
0.00138977
3.13388e-14
0.00138977
2.99981e-14
0.00138977
2.86392e-14
0.00138977
2.7253e-14
0.00138977
2.58442e-14
0.00138977
2.44195e-14
0.00138977
2.2977e-14
0.00138977
2.1521e-14
0.00138977
2.00509e-14
0.00138977
1.8573e-14
0.00138977
1.70837e-14
0.00138977
1.55872e-14
0.00138977
1.40878e-14
0.00138977
1.25801e-14
0.00138977
1.10743e-14
0.00138977
9.56512e-15
0.00138977
8.05661e-15
0.00138977
6.5556e-15
0.00138977
5.05163e-15
0.00138977
3.55102e-15
0.00138977
2.05475e-15
0.00138977
5.63915e-16
0.00138977
-9.13325e-16
0.00138977
-2.39052e-15
0.00138977
-3.85877e-15
0.00138977
-5.32315e-15
0.00138977
-6.78003e-15
0.00138977
-8.21749e-15
0.00138977
-9.65572e-15
0.00138977
-1.10844e-14
0.00138977
-1.2504e-14
0.00138977
-1.3916e-14
0.00138977
-1.53117e-14
0.00138977
-1.67047e-14
0.00138977
-1.80907e-14
0.00138977
-1.9466e-14
0.00138977
-2.08364e-14
0.00138977
-2.21969e-14
0.00138977
-2.3554e-14
0.00138977
-2.49056e-14
0.00138977
-2.62537e-14
0.00138977
-2.75965e-14
0.00138977
-2.89317e-14
0.00138977
-3.02737e-14
0.00138977
-3.16141e-14
0.00138977
-3.29607e-14
0.00138977
-3.43116e-14
0.00138977
-3.56597e-14
0.00138977
-3.70279e-14
0.00138977
-3.84033e-14
0.00138977
-3.97974e-14
0.00138977
-4.12142e-14
0.00138977
-4.2641e-14
0.00138977
-4.41076e-14
0.00138977
-4.56065e-14
0.00138977
-4.7142e-14
0.00138977
-4.8728e-14
0.00138977
-5.03586e-14
0.00138977
-5.2057e-14
0.00138977
-5.38279e-14
0.00138977
-5.5674e-14
0.00138977
-5.76136e-14
0.00138977
-5.96527e-14
0.00138977
-6.18134e-14
0.00138977
-6.41098e-14
0.00138977
-6.65545e-14
0.00138977
-6.91675e-14
0.00138977
-7.19672e-14
0.00138977
-7.49845e-14
0.00138977
-7.82367e-14
0.00138977
-8.17586e-14
0.00138977
-8.55778e-14
0.00138977
-8.97184e-14
0.00138977
-9.42357e-14
0.00138977
-9.91604e-14
0.00138977
-1.04541e-13
0.00138977
-1.10425e-13
0.00138977
-1.16854e-13
0.00138977
-1.23909e-13
0.00138977
-1.31643e-13
0.00138977
-1.40119e-13
0.00138977
-1.49423e-13
0.00138977
-1.59621e-13
0.00138977
-1.70812e-13
0.00138977
-1.83088e-13
0.00138977
-1.96544e-13
0.00138977
-2.11281e-13
0.00138977
-2.27408e-13
0.00138977
-2.4505e-13
0.00138977
-2.64316e-13
0.00138977
-2.85328e-13
0.00138977
-3.08202e-13
0.00138977
-3.33056e-13
0.00138977
-3.6001e-13
0.00138977
-3.89156e-13
0.00138977
-4.20592e-13
0.00138977
-4.5438e-13
0.00138977
-4.90538e-13
0.00138977
-5.29064e-13
0.00138977
-5.69846e-13
0.00138977
-6.12673e-13
0.00138977
-6.57164e-13
0.00138977
-7.0267e-13
0.00138977
-7.48207e-13
0.00138977
-7.92201e-13
0.00138977
-8.32258e-13
0.00138977
-8.64763e-13
0.00138977
-8.84238e-13
0.00138977
-8.8248e-13
0.00138977
-8.47156e-13
0.00138977
-7.59673e-13
0.00138977
-5.91948e-13
0.00138977
-3.01208e-13
0.00138977
1.75993e-13
0.00138977
9.18965e-13
0.00138977
2.05338e-12
0.00138977
3.71737e-12
0.00138977
6.02916e-12
0.00138977
8.96405e-12
0.00138977
1.19897e-11
0.00138977
1.35998e-11
1.17063e-11
0.00228478
1.0822e-11
0.00228478
-5.89929e-13
0.00228478
-9.86318e-12
0.00228478
-1.4843e-11
0.00228478
-1.66266e-11
0.00228478
-1.67967e-11
0.00228478
-1.61561e-11
0.00228478
-1.50979e-11
0.00228478
-1.38606e-11
0.00228478
-1.2574e-11
0.00228478
-1.13074e-11
0.00228478
-1.00973e-11
0.00228478
-8.96246e-12
0.00228478
-7.91059e-12
0.00228478
-6.94322e-12
0.00228478
-6.0581e-12
0.00228478
-5.25086e-12
0.00228478
-4.51615e-12
0.00228478
-3.84823e-12
0.00228478
-3.24142e-12
0.00228478
-2.69033e-12
0.00228478
-2.18994e-12
0.00228478
-1.73566e-12
0.00228478
-1.32328e-12
0.00228478
-9.49029e-13
0.00228478
-6.09464e-13
0.00228478
-3.01496e-13
0.00228478
-2.21199e-14
0.00228478
2.30779e-13
0.00228478
4.5991e-13
0.00228478
6.67197e-13
0.00228478
8.54569e-13
0.00228478
1.02374e-12
0.00228478
1.17625e-12
0.00228478
1.31351e-12
0.00228478
1.43679e-12
0.00228478
1.54724e-12
0.00228478
1.64591e-12
0.00228478
1.73374e-12
0.00228478
1.81159e-12
0.00228478
1.88023e-12
0.00228478
1.94039e-12
0.00228478
1.99269e-12
0.00228478
2.03773e-12
0.00228478
2.07603e-12
0.00228478
2.1081e-12
0.00228478
2.13438e-12
0.00228478
2.15526e-12
0.00228478
2.17114e-12
0.00228478
2.18235e-12
0.00228478
2.18922e-12
0.00228478
2.19203e-12
0.00228478
2.19107e-12
0.00228478
2.18658e-12
0.00228478
2.1788e-12
0.00228478
2.16795e-12
0.00228478
2.15423e-12
0.00228478
2.13784e-12
0.00228478
2.11894e-12
0.00228478
2.09773e-12
0.00228478
2.07434e-12
0.00228478
2.04895e-12
0.00228478
2.02168e-12
0.00228478
1.99267e-12
0.00228478
1.96206e-12
0.00228478
1.92997e-12
0.00228478
1.89652e-12
0.00228478
1.86183e-12
0.00228478
1.82599e-12
0.00228478
1.78912e-12
0.00228478
1.75132e-12
0.00228478
1.71269e-12
0.00228478
1.67333e-12
0.00228478
1.63332e-12
0.00228478
1.59275e-12
0.00228478
1.55172e-12
0.00228478
1.5103e-12
0.00228478
1.46857e-12
0.00228478
1.42662e-12
0.00228478
1.38451e-12
0.00228478
1.34233e-12
0.00228478
1.30015e-12
0.00228478
1.25802e-12
0.00228478
1.21604e-12
0.00228478
1.17424e-12
0.00228478
1.1327e-12
0.00228478
1.09148e-12
0.00228478
1.05064e-12
0.00228478
1.01023e-12
0.00228478
9.70297e-13
0.00228478
9.30899e-13
0.00228478
8.92085e-13
0.00228478
8.53897e-13
0.00228478
8.16381e-13
0.00228478
7.79575e-13
0.00228478
7.43514e-13
0.00228478
7.08241e-13
0.00228478
6.73787e-13
0.00228478
6.4018e-13
0.00228478
6.07449e-13
0.00228478
5.75618e-13
0.00228478
5.44715e-13
0.00228478
5.14755e-13
0.00228478
4.8576e-13
0.00228478
4.57744e-13
0.00228478
4.30714e-13
0.00228478
4.04682e-13
0.00228478
3.79665e-13
0.00228478
3.55662e-13
0.00228478
3.32672e-13
0.00228478
3.107e-13
0.00228478
2.8974e-13
0.00228478
2.69794e-13
0.00228478
2.50855e-13
0.00228478
2.32912e-13
0.00228478
2.15957e-13
0.00228478
1.99975e-13
0.00228478
1.84957e-13
0.00228478
1.70885e-13
0.00228478
1.57741e-13
0.00228478
1.45504e-13
0.00228478
1.34154e-13
0.00228478
1.23677e-13
0.00228478
1.14045e-13
0.00228478
1.05226e-13
0.00228478
9.72004e-14
0.00228478
8.99421e-14
0.00228478
8.34265e-14
0.00228478
7.76199e-14
0.00228478
7.24928e-14
0.00228478
6.80202e-14
0.00228478
6.41692e-14
0.00228478
6.09117e-14
0.00228478
5.82153e-14
0.00228478
5.60477e-14
0.00228478
5.43798e-14
0.00228478
5.31788e-14
0.00228478
5.24208e-14
0.00228478
5.20695e-14
0.00228478
5.20889e-14
0.00228478
5.24567e-14
0.00228478
5.31426e-14
0.00228478
5.41212e-14
0.00228478
5.53584e-14
0.00228478
5.68229e-14
0.00228478
5.84905e-14
0.00228478
6.03345e-14
0.00228478
6.23365e-14
0.00228478
6.44672e-14
0.00228478
6.66979e-14
0.00228478
6.90063e-14
0.00228478
7.13757e-14
0.00228478
7.37864e-14
0.00228478
7.62106e-14
0.00228478
7.86314e-14
0.00228478
8.10369e-14
0.00228478
8.34058e-14
0.00228478
8.57223e-14
0.00228478
8.79779e-14
0.00228478
9.01509e-14
0.00228478
9.22283e-14
0.00228478
9.42041e-14
0.00228478
9.6069e-14
0.00228478
9.78045e-14
0.00228478
9.94086e-14
0.00228478
1.00877e-13
0.00228478
1.02194e-13
0.00228478
1.03365e-13
0.00228478
1.04381e-13
0.00228478
1.05233e-13
0.00228478
1.05922e-13
0.00228478
1.06442e-13
0.00228478
1.06802e-13
0.00228478
1.06994e-13
0.00228478
1.07016e-13
0.00228478
1.06876e-13
0.00228478
1.06563e-13
0.00228478
1.06088e-13
0.00228478
1.05456e-13
0.00228478
1.04662e-13
0.00228478
1.03713e-13
0.00228478
1.0261e-13
0.00228478
1.01362e-13
0.00228478
9.99726e-14
0.00228478
9.84446e-14
0.00228478
9.67794e-14
0.00228478
9.49827e-14
0.00228478
9.30704e-14
0.00228478
9.10367e-14
0.00228478
8.88876e-14
0.00228478
8.66382e-14
0.00228478
8.42849e-14
0.00228478
8.18398e-14
0.00228478
7.93078e-14
0.00228478
7.66887e-14
0.00228478
7.39915e-14
0.00228478
7.12201e-14
0.00228478
6.83888e-14
0.00228478
6.54988e-14
0.00228478
6.25469e-14
0.00228478
5.95498e-14
0.00228478
5.6509e-14
0.00228478
5.34261e-14
0.00228478
5.03117e-14
0.00228478
4.7169e-14
0.00228478
4.40021e-14
0.00228478
4.08126e-14
0.00228478
3.76111e-14
0.00228478
3.43923e-14
0.00228478
3.11658e-14
0.00228478
2.79386e-14
0.00228478
2.47033e-14
0.00228478
2.14766e-14
0.00228478
1.82506e-14
0.00228478
1.50317e-14
0.00228478
1.1831e-14
0.00228478
8.6354e-15
0.00228478
5.4557e-15
0.00228478
2.29224e-15
0.00228478
-8.52208e-16
0.00228478
-3.96934e-15
0.00228478
-7.06847e-15
0.00228478
-1.01462e-14
0.00228478
-1.32043e-14
0.00228478
-1.62359e-14
0.00228478
-1.92316e-14
0.00228478
-2.22096e-14
0.00228478
-2.51599e-14
0.00228478
-2.80831e-14
0.00228478
-3.09787e-14
0.00228478
-3.38397e-14
0.00228478
-3.66815e-14
0.00228478
-3.94942e-14
0.00228478
-4.2283e-14
0.00228478
-4.50494e-14
0.00228478
-4.77845e-14
0.00228478
-5.05012e-14
0.00228478
-5.31994e-14
0.00228478
-5.58791e-14
0.00228478
-5.85382e-14
0.00228478
-6.11758e-14
0.00228478
-6.38139e-14
0.00228478
-6.64432e-14
0.00228478
-6.9071e-14
0.00228478
-7.16986e-14
0.00228478
-7.43223e-14
0.00228478
-7.69699e-14
0.00228478
-7.96323e-14
0.00228478
-8.2324e-14
0.00228478
-8.50539e-14
0.00228478
-8.78166e-14
0.00228478
-9.06452e-14
0.00228478
-9.35395e-14
0.00228478
-9.65138e-14
0.00228478
-9.9589e-14
0.00228478
-1.0277e-13
0.00228478
-1.06092e-13
0.00228478
-1.09571e-13
0.00228478
-1.13222e-13
0.00228478
-1.17078e-13
0.00228478
-1.21165e-13
0.00228478
-1.25519e-13
0.00228478
-1.30176e-13
0.00228478
-1.35174e-13
0.00228478
-1.40554e-13
0.00228478
-1.4636e-13
0.00228478
-1.52655e-13
0.00228478
-1.59488e-13
0.00228478
-1.6693e-13
0.00228478
-1.75046e-13
0.00228478
-1.83901e-13
0.00228478
-1.93596e-13
0.00228478
-2.04212e-13
0.00228478
-2.15852e-13
0.00228478
-2.28617e-13
0.00228478
-2.42611e-13
0.00228478
-2.57988e-13
0.00228478
-2.74868e-13
0.00228478
-2.93388e-13
0.00228478
-3.13718e-13
0.00228478
-3.36013e-13
0.00228478
-3.60464e-13
0.00228478
-3.8726e-13
0.00228478
-4.16595e-13
0.00228478
-4.48676e-13
0.00228478
-4.83722e-13
0.00228478
-5.21971e-13
0.00228478
-5.63643e-13
0.00228478
-6.08968e-13
0.00228478
-6.5817e-13
0.00228478
-7.11456e-13
0.00228478
-7.69034e-13
0.00228478
-8.31057e-13
0.00228478
-8.97654e-13
0.00228478
-9.68877e-13
0.00228478
-1.04468e-12
0.00228478
-1.12491e-12
0.00228478
-1.2092e-12
0.00228478
-1.29696e-12
0.00228478
-1.3872e-12
0.00228478
-1.47839e-12
0.00228478
-1.56831e-12
0.00228478
-1.65356e-12
0.00228478
-1.72918e-12
0.00228478
-1.78783e-12
0.00228478
-1.8187e-12
0.00228478
-1.80592e-12
0.00228478
-1.72609e-12
0.00228478
-1.54489e-12
0.00228478
-1.21216e-12
0.00228478
-6.55254e-13
0.00228478
2.28686e-13
0.00228478
1.57192e-12
0.00228478
3.55471e-12
0.00228478
6.36346e-12
0.00228478
1.01251e-11
0.00228478
1.47221e-11
0.00228478
1.93445e-11
0.00228478
2.18802e-11
1.93822e-11
0.00315607
1.54498e-11
0.00315607
1.35164e-12
0.00315607
-1.1196e-11
0.00315607
-1.89005e-11
0.00315607
-2.24691e-11
0.00315607
-2.3643e-11
0.00315607
-2.34438e-11
0.00315607
-2.2434e-11
0.00315607
-2.0988e-11
0.00315607
-1.93337e-11
0.00315607
-1.7607e-11
0.00315607
-1.58893e-11
0.00315607
-1.42287e-11
0.00315607
-1.26523e-11
0.00315607
-1.11743e-11
0.00315607
-9.80011e-12
0.00315607
-8.53e-12
0.00315607
-7.36095e-12
0.00315607
-6.28808e-12
0.00315607
-5.30555e-12
0.00315607
-4.40713e-12
0.00315607
-3.58661e-12
0.00315607
-2.83791e-12
0.00315607
-2.15532e-12
0.00315607
-1.53344e-12
0.00315607
-9.67283e-13
0.00315607
-4.52238e-13
0.00315607
1.6182e-14
0.00315607
4.41227e-13
0.00315607
8.27121e-13
0.00315607
1.17689e-12
0.00315607
1.49353e-12
0.00315607
1.77979e-12
0.00315607
2.03813e-12
0.00315607
2.27084e-12
0.00315607
2.47998e-12
0.00315607
2.66743e-12
0.00315607
2.8349e-12
0.00315607
2.98396e-12
0.00315607
3.11603e-12
0.00315607
3.23241e-12
0.00315607
3.33428e-12
0.00315607
3.42273e-12
0.00315607
3.49875e-12
0.00315607
3.56323e-12
0.00315607
3.617e-12
0.00315607
3.66084e-12
0.00315607
3.69542e-12
0.00315607
3.7214e-12
0.00315607
3.73936e-12
0.00315607
3.74986e-12
0.00315607
3.75339e-12
0.00315607
3.75044e-12
0.00315607
3.74142e-12
0.00315607
3.72675e-12
0.00315607
3.70681e-12
0.00315607
3.68195e-12
0.00315607
3.6525e-12
0.00315607
3.61878e-12
0.00315607
3.58108e-12
0.00315607
3.53968e-12
0.00315607
3.49483e-12
0.00315607
3.4468e-12
0.00315607
3.39582e-12
0.00315607
3.34211e-12
0.00315607
3.28589e-12
0.00315607
3.22738e-12
0.00315607
3.16676e-12
0.00315607
3.10423e-12
0.00315607
3.03998e-12
0.00315607
2.97418e-12
0.00315607
2.90701e-12
0.00315607
2.83862e-12
0.00315607
2.76919e-12
0.00315607
2.69885e-12
0.00315607
2.62777e-12
0.00315607
2.5561e-12
0.00315607
2.48396e-12
0.00315607
2.41149e-12
0.00315607
2.33883e-12
0.00315607
2.26611e-12
0.00315607
2.19344e-12
0.00315607
2.12095e-12
0.00315607
2.04875e-12
0.00315607
1.97696e-12
0.00315607
1.90567e-12
0.00315607
1.83499e-12
0.00315607
1.76502e-12
0.00315607
1.69585e-12
0.00315607
1.62758e-12
0.00315607
1.56028e-12
0.00315607
1.49404e-12
0.00315607
1.42893e-12
0.00315607
1.36503e-12
0.00315607
1.30241e-12
0.00315607
1.24112e-12
0.00315607
1.18122e-12
0.00315607
1.12278e-12
0.00315607
1.06584e-12
0.00315607
1.01045e-12
0.00315607
9.56638e-13
0.00315607
9.04452e-13
0.00315607
8.53922e-13
0.00315607
8.05078e-13
0.00315607
7.57941e-13
0.00315607
7.12525e-13
0.00315607
6.68842e-13
0.00315607
6.26916e-13
0.00315607
5.86751e-13
0.00315607
5.48335e-13
0.00315607
5.11673e-13
0.00315607
4.76761e-13
0.00315607
4.43589e-13
0.00315607
4.12147e-13
0.00315607
3.82413e-13
0.00315607
3.54369e-13
0.00315607
3.27991e-13
0.00315607
3.03256e-13
0.00315607
2.80131e-13
0.00315607
2.58583e-13
0.00315607
2.3858e-13
0.00315607
2.20079e-13
0.00315607
2.0305e-13
0.00315607
1.87448e-13
0.00315607
1.7322e-13
0.00315607
1.60325e-13
0.00315607
1.48722e-13
0.00315607
1.38362e-13
0.00315607
1.29188e-13
0.00315607
1.21148e-13
0.00315607
1.142e-13
0.00315607
1.08286e-13
0.00315607
1.03351e-13
0.00315607
9.93454e-14
0.00315607
9.62119e-14
0.00315607
9.39009e-14
0.00315607
9.23593e-14
0.00315607
9.15362e-14
0.00315607
9.13746e-14
0.00315607
9.18183e-14
0.00315607
9.28233e-14
0.00315607
9.43348e-14
0.00315607
9.63122e-14
0.00315607
9.87032e-14
0.00315607
1.01449e-13
0.00315607
1.04513e-13
0.00315607
1.0785e-13
0.00315607
1.11423e-13
0.00315607
1.15185e-13
0.00315607
1.19089e-13
0.00315607
1.23103e-13
0.00315607
1.27194e-13
0.00315607
1.31327e-13
0.00315607
1.35463e-13
0.00315607
1.3957e-13
0.00315607
1.43626e-13
0.00315607
1.476e-13
0.00315607
1.51466e-13
0.00315607
1.55207e-13
0.00315607
1.58792e-13
0.00315607
1.62197e-13
0.00315607
1.65414e-13
0.00315607
1.68424e-13
0.00315607
1.71208e-13
0.00315607
1.73755e-13
0.00315607
1.76057e-13
0.00315607
1.78094e-13
0.00315607
1.79872e-13
0.00315607
1.81378e-13
0.00315607
1.82601e-13
0.00315607
1.8354e-13
0.00315607
1.8419e-13
0.00315607
1.84559e-13
0.00315607
1.84642e-13
0.00315607
1.84436e-13
0.00315607
1.83947e-13
0.00315607
1.83171e-13
0.00315607
1.82119e-13
0.00315607
1.80798e-13
0.00315607
1.79204e-13
0.00315607
1.77352e-13
0.00315607
1.75242e-13
0.00315607
1.72886e-13
0.00315607
1.70295e-13
0.00315607
1.67473e-13
0.00315607
1.64423e-13
0.00315607
1.61157e-13
0.00315607
1.57699e-13
0.00315607
1.54042e-13
0.00315607
1.50199e-13
0.00315607
1.46188e-13
0.00315607
1.42009e-13
0.00315607
1.37682e-13
0.00315607
1.33214e-13
0.00315607
1.28607e-13
0.00315607
1.23877e-13
0.00315607
1.19032e-13
0.00315607
1.14089e-13
0.00315607
1.09056e-13
0.00315607
1.03931e-13
0.00315607
9.87332e-14
0.00315607
9.34714e-14
0.00315607
8.81504e-14
0.00315607
8.27814e-14
0.00315607
7.7377e-14
0.00315607
7.19386e-14
0.00315607
6.64737e-14
0.00315607
6.09954e-14
0.00315607
5.55015e-14
0.00315607
5.00031e-14
0.00315607
4.45096e-14
0.00315607
3.90197e-14
0.00315607
3.35493e-14
0.00315607
2.80932e-14
0.00315607
2.26606e-14
0.00315607
1.72661e-14
0.00315607
1.18939e-14
0.00315607
6.56122e-15
0.00315607
1.26785e-15
0.00315607
-3.98321e-15
0.00315607
-9.17878e-15
0.00315607
-1.43284e-14
0.00315607
-1.94297e-14
0.00315607
-2.44808e-14
0.00315607
-2.94766e-14
0.00315607
-3.44064e-14
0.00315607
-3.92823e-14
0.00315607
-4.40968e-14
0.00315607
-4.88535e-14
0.00315607
-5.35459e-14
0.00315607
-5.81691e-14
0.00315607
-6.27396e-14
0.00315607
-6.72463e-14
0.00315607
-7.16949e-14
0.00315607
-7.60861e-14
0.00315607
-8.04102e-14
0.00315607
-8.46841e-14
0.00315607
-8.89081e-14
0.00315607
-9.30773e-14
0.00315607
-9.71969e-14
0.00315607
-1.01267e-13
0.00315607
-1.0531e-13
0.00315607
-1.09318e-13
0.00315607
-1.133e-13
0.00315607
-1.17264e-13
0.00315607
-1.21206e-13
0.00315607
-1.25159e-13
0.00315607
-1.29123e-13
0.00315607
-1.33112e-13
0.00315607
-1.37145e-13
0.00315607
-1.41219e-13
0.00315607
-1.45376e-13
0.00315607
-1.49629e-13
0.00315607
-1.53999e-13
0.00315607
-1.58518e-13
0.00315607
-1.63206e-13
0.00315607
-1.6811e-13
0.00315607
-1.73263e-13
0.00315607
-1.78698e-13
0.00315607
-1.8447e-13
0.00315607
-1.90621e-13
0.00315607
-1.97216e-13
0.00315607
-2.04317e-13
0.00315607
-2.1199e-13
0.00315607
-2.20308e-13
0.00315607
-2.29352e-13
0.00315607
-2.39225e-13
0.00315607
-2.50016e-13
0.00315607
-2.61847e-13
0.00315607
-2.74834e-13
0.00315607
-2.89093e-13
0.00315607
-3.04786e-13
0.00315607
-3.22062e-13
0.00315607
-3.41093e-13
0.00315607
-3.62055e-13
0.00315607
-3.85138e-13
0.00315607
-4.10583e-13
0.00315607