/*--------------------------------*- C++ -*----------------------------------*\
| =========                 |                                                 |
| \\      /  F ield         | OpenFOAM: The Open Source CFD Toolbox           |
|  \\    /   O peration     | Version:  2112                                  |
|   \\  /    A nd           | Website:  www.openfoam.com                      |
|    \\/     M anipulation  |                                                 |
\*---------------------------------------------------------------------------*/
FoamFile
{
    version     2.0;
    format      ascii;
    arch        "LSB;label=32;scalar=64";
    class       volVectorField;
    location    "5.98";
    object      U;
}
// * * * * * * * * * * * * * * * * * * * * * * * * * * * * * * * * * * * * * //

dimensions      [0 1 -1 0 0 0 0];

internalField   nonuniform List<vector> 
25600
(
(0.0376896 2.40452e-11 0)
(0.0376896 -4.74077e-11 0)
(0.0376896 -7.84489e-11 0)
(0.0376896 -7.45096e-11 0)
(0.0376896 -6.18026e-11 0)
(0.0376896 -5.089e-11 0)
(0.0376896 -4.20181e-11 0)
(0.0376897 -3.48719e-11 0)
(0.0376897 -2.91451e-11 0)
(0.0376897 -2.44509e-11 0)
(0.0376897 -2.0546e-11 0)
(0.0376897 -1.72842e-11 0)
(0.0376897 -1.45638e-11 0)
(0.0376897 -1.22995e-11 0)
(0.0376897 -1.04137e-11 0)
(0.0376897 -8.8353e-12 0)
(0.0376897 -7.50275e-12 0)
(0.0376897 -6.36469e-12 0)
(0.0376897 -5.38112e-12 0)
(0.0376897 -4.52132e-12 0)
(0.0376897 -3.7628e-12 0)
(0.0376897 -3.0886e-12 0)
(0.0376897 -2.48618e-12 0)
(0.0376897 -1.94556e-12 0)
(0.0376897 -1.45853e-12 0)
(0.0376897 -1.01751e-12 0)
(0.0376897 -6.19289e-13 0)
(0.0376897 -2.75759e-13 0)
(0.0376897 1.12357e-14 0)
(0.0376897 3.00717e-13 0)
(0.0376897 5.69705e-13 0)
(0.0376897 8.11567e-13 0)
(0.0376897 1.02953e-12 0)
(0.0376897 1.22694e-12 0)
(0.0376897 1.406e-12 0)
(0.0376897 1.56853e-12 0)
(0.0376897 1.7161e-12 0)
(0.0376897 1.85004e-12 0)
(0.0376897 1.97148e-12 0)
(0.0376897 2.08148e-12 0)
(0.0376897 2.18087e-12 0)
(0.0376897 2.27042e-12 0)
(0.0376897 2.35084e-12 0)
(0.0376897 2.42274e-12 0)
(0.0376897 2.4867e-12 0)
(0.0376897 2.54319e-12 0)
(0.0376897 2.59269e-12 0)
(0.0376897 2.63562e-12 0)
(0.0376897 2.67235e-12 0)
(0.0376897 2.70327e-12 0)
(0.0376897 2.72871e-12 0)
(0.0376897 2.74898e-12 0)
(0.0376897 2.76432e-12 0)
(0.0376897 2.77506e-12 0)
(0.0376897 2.78151e-12 0)
(0.0376897 2.78368e-12 0)
(0.0376897 2.78205e-12 0)
(0.0376897 2.77675e-12 0)
(0.0376897 2.7679e-12 0)
(0.0376897 2.75577e-12 0)
(0.0376897 2.74044e-12 0)
(0.0376897 2.72229e-12 0)
(0.0376897 2.70125e-12 0)
(0.0376897 2.67757e-12 0)
(0.0376897 2.65148e-12 0)
(0.0376897 2.62286e-12 0)
(0.0376897 2.59215e-12 0)
(0.0376897 2.55931e-12 0)
(0.0376897 2.52449e-12 0)
(0.0376897 2.48783e-12 0)
(0.0376897 2.44942e-12 0)
(0.0376897 2.40941e-12 0)
(0.0376897 2.36788e-12 0)
(0.0376897 2.32498e-12 0)
(0.0376897 2.28077e-12 0)
(0.0376897 2.23534e-12 0)
(0.0376897 2.18885e-12 0)
(0.0376897 2.14137e-12 0)
(0.0376897 2.093e-12 0)
(0.0376897 2.04388e-12 0)
(0.0376897 1.99388e-12 0)
(0.0376897 1.94339e-12 0)
(0.0376897 1.89244e-12 0)
(0.0376897 1.84097e-12 0)
(0.0376897 1.78919e-12 0)
(0.0376897 1.73716e-12 0)
(0.0376897 1.68487e-12 0)
(0.0376897 1.63259e-12 0)
(0.0376897 1.58038e-12 0)
(0.0376897 1.52815e-12 0)
(0.0376897 1.47599e-12 0)
(0.0376897 1.42414e-12 0)
(0.0376897 1.37267e-12 0)
(0.0376897 1.32152e-12 0)
(0.0376897 1.27071e-12 0)
(0.0376897 1.22047e-12 0)
(0.0376897 1.17093e-12 0)
(0.0376897 1.12188e-12 0)
(0.0376897 1.07366e-12 0)
(0.0376897 1.02616e-12 0)
(0.0376897 9.79293e-13 0)
(0.0376897 9.33505e-13 0)
(0.0376897 8.88596e-13 0)
(0.0376897 8.44624e-13 0)
(0.0376897 8.01777e-13 0)
(0.0376897 7.59777e-13 0)
(0.0376897 7.18869e-13 0)
(0.0376897 6.79246e-13 0)
(0.0376897 6.40751e-13 0)
(0.0376897 6.03378e-13 0)
(0.0376897 5.67194e-13 0)
(0.0376897 5.32108e-13 0)
(0.0376897 4.98485e-13 0)
(0.0376897 4.66202e-13 0)
(0.0376897 4.34939e-13 0)
(0.0376897 4.04987e-13 0)
(0.0376897 3.76455e-13 0)
(0.0376897 3.49229e-13 0)
(0.0376897 3.23156e-13 0)
(0.0376897 2.98377e-13 0)
(0.0376897 2.75034e-13 0)
(0.0376897 2.52816e-13 0)
(0.0376897 2.31875e-13 0)
(0.0376897 2.12398e-13 0)
(0.0376897 1.93991e-13 0)
(0.0376897 1.76665e-13 0)
(0.0376897 1.60587e-13 0)
(0.0376897 1.45898e-13 0)
(0.0376897 1.32223e-13 0)
(0.0376897 1.19582e-13 0)
(0.0376897 1.08098e-13 0)
(0.0376897 9.76081e-14 0)
(0.0376897 8.82567e-14 0)
(0.0376897 7.98947e-14 0)
(0.0376897 7.23701e-14 0)
(0.0376897 6.58185e-14 0)
(0.0376897 6.00568e-14 0)
(0.0376897 5.52774e-14 0)
(0.0376897 5.14104e-14 0)
(0.0376897 4.80488e-14 0)
(0.0376897 4.5371e-14 0)
(0.0376897 4.35743e-14 0)
(0.0376897 4.25034e-14 0)
(0.0376897 4.17663e-14 0)
(0.0376897 4.17538e-14 0)
(0.0376897 4.23002e-14 0)
(0.0376897 4.30764e-14 0)
(0.0376897 4.44195e-14 0)
(0.0376897 4.63518e-14 0)
(0.0376897 4.85133e-14 0)
(0.0376897 5.09141e-14 0)
(0.0376897 5.3592e-14 0)
(0.0376897 5.667e-14 0)
(0.0376897 5.99688e-14 0)
(0.0376897 6.32891e-14 0)
(0.0376897 6.68198e-14 0)
(0.0376897 7.03888e-14 0)
(0.0376897 7.42753e-14 0)
(0.0376897 7.81485e-14 0)
(0.0376897 8.19028e-14 0)
(0.0376897 8.58274e-14 0)
(0.0376897 8.95285e-14 0)
(0.0376897 9.33364e-14 0)
(0.0376897 9.72481e-14 0)
(0.0376897 1.00657e-13 0)
(0.0376897 1.04198e-13 0)
(0.0376897 1.07725e-13 0)
(0.0376897 1.10924e-13 0)
(0.0376897 1.1405e-13 0)
(0.0376897 1.17009e-13 0)
(0.0376897 1.19758e-13 0)
(0.0376897 1.22258e-13 0)
(0.0376897 1.2484e-13 0)
(0.0376897 1.26869e-13 0)
(0.0376897 1.28662e-13 0)
(0.0376897 1.30657e-13 0)
(0.0376897 1.31945e-13 0)
(0.0376897 1.33204e-13 0)
(0.0376897 1.344e-13 0)
(0.0376897 1.35189e-13 0)
(0.0376897 1.3567e-13 0)
(0.0376897 1.35858e-13 0)
(0.0376897 1.36074e-13 0)
(0.0376897 1.36027e-13 0)
(0.0376897 1.35609e-13 0)
(0.0376897 1.35053e-13 0)
(0.0376897 1.34087e-13 0)
(0.0376897 1.33085e-13 0)
(0.0376897 1.32039e-13 0)
(0.0376897 1.30361e-13 0)
(0.0376897 1.28714e-13 0)
(0.0376897 1.26998e-13 0)
(0.0376897 1.24903e-13 0)
(0.0376897 1.22695e-13 0)
(0.0376897 1.20306e-13 0)
(0.0376897 1.17719e-13 0)
(0.0376897 1.14923e-13 0)
(0.0376897 1.12271e-13 0)
(0.0376897 1.09107e-13 0)
(0.0376897 1.05777e-13 0)
(0.0376897 1.02753e-13 0)
(0.0376897 9.91488e-14 0)
(0.0376897 9.55856e-14 0)
(0.0376897 9.21287e-14 0)
(0.0376897 8.82434e-14 0)
(0.0376897 8.43302e-14 0)
(0.0376897 8.03613e-14 0)
(0.0376897 7.64036e-14 0)
(0.0376897 7.2338e-14 0)
(0.0376897 6.80717e-14 0)
(0.0376897 6.3875e-14 0)
(0.0376897 5.94512e-14 0)
(0.0376897 5.49989e-14 0)
(0.0376897 5.05756e-14 0)
(0.0376897 4.59635e-14 0)
(0.0376897 4.14777e-14 0)
(0.0376897 3.68804e-14 0)
(0.0376897 3.21219e-14 0)
(0.0376897 2.71484e-14 0)
(0.0376897 2.22278e-14 0)
(0.0376897 1.75158e-14 0)
(0.0376897 1.24083e-14 0)
(0.0376897 7.80041e-15 0)
(0.0376897 2.77369e-15 0)
(0.0376897 -2.32519e-15 0)
(0.0376897 -6.81798e-15 0)
(0.0376897 -1.20247e-14 0)
(0.0376897 -1.69599e-14 0)
(0.0376897 -2.19242e-14 0)
(0.0376897 -2.72355e-14 0)
(0.0376897 -3.19815e-14 0)
(0.0376897 -3.7169e-14 0)
(0.0376897 -4.25305e-14 0)
(0.0376897 -4.75322e-14 0)
(0.0376897 -5.28241e-14 0)
(0.0376897 -5.80405e-14 0)
(0.0376897 -6.34449e-14 0)
(0.0376897 -6.88827e-14 0)
(0.0376897 -7.42709e-14 0)
(0.0376897 -7.98222e-14 0)
(0.0376897 -8.52573e-14 0)
(0.0376897 -9.08022e-14 0)
(0.0376897 -9.64695e-14 0)
(0.0376897 -1.02346e-13 0)
(0.0376897 -1.08156e-13 0)
(0.0376897 -1.13794e-13 0)
(0.0376897 -1.19999e-13 0)
(0.0376897 -1.25746e-13 0)
(0.0376897 -1.31986e-13 0)
(0.0376897 -1.38377e-13 0)
(0.0376897 -1.44205e-13 0)
(0.0376897 -1.50838e-13 0)
(0.0376897 -1.57248e-13 0)
(0.0376897 -1.63742e-13 0)
(0.0376897 -1.70674e-13 0)
(0.0376897 -1.77093e-13 0)
(0.0376897 -1.84051e-13 0)
(0.0376897 -1.91284e-13 0)
(0.0376897 -1.98238e-13 0)
(0.0376897 -2.0558e-13 0)
(0.0376897 -2.12931e-13 0)
(0.0376897 -2.20588e-13 0)
(0.0376897 -2.28451e-13 0)
(0.0376897 -2.36391e-13 0)
(0.0376897 -2.44665e-13 0)
(0.0376897 -2.53053e-13 0)
(0.0376897 -2.61742e-13 0)
(0.0376897 -2.70816e-13 0)
(0.0376897 -2.80385e-13 0)
(0.0376897 -2.904e-13 0)
(0.0376897 -3.00724e-13 0)
(0.0376897 -3.11885e-13 0)
(0.0376897 -3.23321e-13 0)
(0.0376897 -3.36088e-13 0)
(0.0376897 -3.49855e-13 0)
(0.0376897 -3.64169e-13 0)
(0.0376897 -3.80324e-13 0)
(0.0376897 -3.97838e-13 0)
(0.0376897 -4.17255e-13 0)
(0.0376897 -4.38899e-13 0)
(0.0376897 -4.62349e-13 0)
(0.0376897 -4.89083e-13 0)
(0.0376897 -5.18986e-13 0)
(0.0376897 -5.51945e-13 0)
(0.0376897 -5.89298e-13 0)
(0.0376897 -6.30972e-13 0)
(0.0376897 -6.77896e-13 0)
(0.0376897 -7.30419e-13 0)
(0.0376897 -7.89194e-13 0)
(0.0376897 -8.54624e-13 0)
(0.0376897 -9.27589e-13 0)
(0.0376897 -1.00924e-12 0)
(0.0376897 -1.0998e-12 0)
(0.0376897 -1.20027e-12 0)
(0.0376897 -1.3117e-12 0)
(0.0376897 -1.43468e-12 0)
(0.0376897 -1.57073e-12 0)
(0.0376897 -1.72011e-12 0)
(0.0376897 -1.88484e-12 0)
(0.0376897 -2.06502e-12 0)
(0.0376897 -2.26054e-12 0)
(0.0376897 -2.47187e-12 0)
(0.0376897 -2.69652e-12 0)
(0.0376897 -2.92993e-12 0)
(0.0376897 -3.16321e-12 0)
(0.0376897 -3.37863e-12 0)
(0.0376897 -3.54803e-12 0)
(0.0376897 -3.62318e-12 0)
(0.0376897 -3.54016e-12 0)
(0.0376897 -3.23299e-12 0)
(0.0376897 -2.63647e-12 0)
(0.0376897 -1.34866e-12 0)
(0.0376897 2.21757e-12 0)
(0.0376897 8.58721e-12 0)
(0.0376897 1.93092e-11 0)
(0.0376897 3.65806e-11 0)
(0.0376897 6.26115e-11 0)
(0.0376896 9.54265e-11 0)
(0.0376896 1.15742e-10 0)
(0.0376896 9.27973e-11 0)
(0.111182 2.74827e-10 0)
(0.111182 -1.23413e-10 0)
(0.111182 -3.91234e-10 0)
(0.111182 -4.87231e-10 0)
(0.111182 -4.87127e-10 0)
(0.111182 -4.54464e-10 0)
(0.111182 -4.12376e-10 0)
(0.111182 -3.68419e-10 0)
(0.111182 -3.26436e-10 0)
(0.111182 -2.87753e-10 0)
(0.111182 -2.52698e-10 0)
(0.111182 -2.21239e-10 0)
(0.111182 -1.93192e-10 0)
(0.111182 -1.68282e-10 0)
(0.111182 -1.4619e-10 0)
(0.111182 -1.26587e-10 0)
(0.111182 -1.09157e-10 0)
(0.111182 -9.36134e-11 0)
(0.111182 -7.97084e-11 0)
(0.111182 -6.7232e-11 0)
(0.111182 -5.60082e-11 0)
(0.111182 -4.58903e-11 0)
(0.111182 -3.67549e-11 0)
(0.111182 -2.84967e-11 0)
(0.111182 -2.10251e-11 0)
(0.111182 -1.42605e-11 0)
(0.111182 -8.13511e-12 0)
(0.111182 -2.60019e-12 0)
(0.111182 2.38378e-12 0)
(0.111182 6.92101e-12 0)
(0.111182 1.10368e-11 0)
(0.111182 1.47617e-11 0)
(0.111182 1.813e-11 0)
(0.111182 2.11732e-11 0)
(0.111182 2.39197e-11 0)
(0.111182 2.6395e-11 0)
(0.111182 2.86222e-11 0)
(0.111182 3.06214e-11 0)
(0.111182 3.24111e-11 0)
(0.111182 3.40079e-11 0)
(0.111182 3.54268e-11 0)
(0.111182 3.66811e-11 0)
(0.111182 3.77832e-11 0)
(0.111182 3.87441e-11 0)
(0.111182 3.95739e-11 0)
(0.111182 4.02819e-11 0)
(0.111182 4.08766e-11 0)
(0.111182 4.13655e-11 0)
(0.111182 4.17559e-11 0)
(0.111182 4.20543e-11 0)
(0.111182 4.22669e-11 0)
(0.111182 4.23991e-11 0)
(0.111182 4.24562e-11 0)
(0.111182 4.24429e-11 0)
(0.111182 4.2364e-11 0)
(0.111182 4.22233e-11 0)
(0.111182 4.2025e-11 0)
(0.111182 4.17727e-11 0)
(0.111182 4.14699e-11 0)
(0.111182 4.11198e-11 0)
(0.111182 4.07253e-11 0)
(0.111182 4.02898e-11 0)
(0.111182 3.98157e-11 0)
(0.111182 3.93056e-11 0)
(0.111182 3.87622e-11 0)
(0.111182 3.81876e-11 0)
(0.111182 3.75844e-11 0)
(0.111182 3.69546e-11 0)
(0.111182 3.63004e-11 0)
(0.111182 3.56237e-11 0)
(0.111182 3.49266e-11 0)
(0.111182 3.4211e-11 0)
(0.111182 3.34786e-11 0)
(0.111182 3.27315e-11 0)
(0.111182 3.1971e-11 0)
(0.111182 3.11988e-11 0)
(0.111182 3.04169e-11 0)
(0.111182 2.96266e-11 0)
(0.111182 2.88294e-11 0)
(0.111182 2.80269e-11 0)
(0.111182 2.72204e-11 0)
(0.111182 2.64114e-11 0)
(0.111182 2.56014e-11 0)
(0.111182 2.47915e-11 0)
(0.111182 2.39832e-11 0)
(0.111182 2.31776e-11 0)
(0.111182 2.23758e-11 0)
(0.111182 2.15794e-11 0)
(0.111182 2.07892e-11 0)
(0.111182 2.00061e-11 0)
(0.111182 1.92313e-11 0)
(0.111182 1.8466e-11 0)
(0.111182 1.77111e-11 0)
(0.111182 1.69674e-11 0)
(0.111182 1.62356e-11 0)
(0.111182 1.55167e-11 0)
(0.111182 1.48116e-11 0)
(0.111182 1.41208e-11 0)
(0.111182 1.34452e-11 0)
(0.111182 1.27852e-11 0)
(0.111182 1.21413e-11 0)
(0.111182 1.15145e-11 0)
(0.111182 1.0905e-11 0)
(0.111182 1.03133e-11 0)
(0.111182 9.73982e-12 0)
(0.111182 9.1845e-12 0)
(0.111182 8.64794e-12 0)
(0.111182 8.13071e-12 0)
(0.111182 7.63275e-12 0)
(0.111182 7.154e-12 0)
(0.111182 6.69468e-12 0)
(0.111182 6.2547e-12 0)
(0.111182 5.83458e-12 0)
(0.111182 5.43414e-12 0)
(0.111182 5.05282e-12 0)
(0.111182 4.69086e-12 0)
(0.111182 4.34823e-12 0)
(0.111182 4.02464e-12 0)
(0.111182 3.7197e-12 0)
(0.111182 3.43325e-12 0)
(0.111182 3.16512e-12 0)
(0.111182 2.91468e-12 0)
(0.111182 2.6819e-12 0)
(0.111182 2.46654e-12 0)
(0.111182 2.26756e-12 0)
(0.111182 2.08465e-12 0)
(0.111182 1.91759e-12 0)
(0.111182 1.76606e-12 0)
(0.111182 1.62917e-12 0)
(0.111182 1.50645e-12 0)
(0.111182 1.39749e-12 0)
(0.111182 1.30159e-12 0)
(0.111182 1.2184e-12 0)
(0.111182 1.14718e-12 0)
(0.111182 1.08729e-12 0)
(0.111182 1.0382e-12 0)
(0.111182 9.99136e-13 0)
(0.111182 9.69992e-13 0)
(0.111182 9.50005e-13 0)
(0.111182 9.37946e-13 0)
(0.111182 9.33973e-13 0)
(0.111182 9.37306e-13 0)
(0.111182 9.47289e-13 0)
(0.111182 9.63342e-13 0)
(0.111182 9.84903e-13 0)
(0.111182 1.0114e-12 0)
(0.111182 1.04204e-12 0)
(0.111182 1.07706e-12 0)
(0.111182 1.11546e-12 0)
(0.111182 1.15641e-12 0)
(0.111182 1.19987e-12 0)
(0.111182 1.24522e-12 0)
(0.111182 1.29225e-12 0)
(0.111182 1.34043e-12 0)
(0.111182 1.38896e-12 0)
(0.111182 1.43785e-12 0)
(0.111182 1.48669e-12 0)
(0.111182 1.53532e-12 0)
(0.111182 1.58318e-12 0)
(0.111182 1.62975e-12 0)
(0.111182 1.67512e-12 0)
(0.111182 1.7187e-12 0)
(0.111182 1.76066e-12 0)
(0.111182 1.80065e-12 0)
(0.111182 1.83784e-12 0)
(0.111182 1.87296e-12 0)
(0.111182 1.90554e-12 0)
(0.111182 1.9352e-12 0)
(0.111182 1.96208e-12 0)
(0.111182 1.98595e-12 0)
(0.111182 2.00667e-12 0)
(0.111182 2.02412e-12 0)
(0.111182 2.0388e-12 0)
(0.111182 2.0498e-12 0)
(0.111182 2.05744e-12 0)
(0.111182 2.06234e-12 0)
(0.111182 2.06332e-12 0)
(0.111182 2.06127e-12 0)
(0.111182 2.05623e-12 0)
(0.111182 2.04769e-12 0)
(0.111182 2.03588e-12 0)
(0.111182 2.02085e-12 0)
(0.111182 2.00312e-12 0)
(0.111182 1.98242e-12 0)
(0.111182 1.95866e-12 0)
(0.111182 1.93208e-12 0)
(0.111182 1.90249e-12 0)
(0.111182 1.87061e-12 0)
(0.111182 1.83633e-12 0)
(0.111182 1.79905e-12 0)
(0.111182 1.75981e-12 0)
(0.111182 1.71846e-12 0)
(0.111182 1.67484e-12 0)
(0.111182 1.62935e-12 0)
(0.111182 1.58186e-12 0)
(0.111182 1.53251e-12 0)
(0.111182 1.4814e-12 0)
(0.111182 1.42918e-12 0)
(0.111182 1.37513e-12 0)
(0.111182 1.31955e-12 0)
(0.111182 1.26337e-12 0)
(0.111182 1.20552e-12 0)
(0.111182 1.14675e-12 0)
(0.111182 1.08733e-12 0)
(0.111182 1.02675e-12 0)
(0.111182 9.65508e-13 0)
(0.111182 9.0361e-13 0)
(0.111182 8.41284e-13 0)
(0.111182 7.7837e-13 0)
(0.111182 7.14894e-13 0)
(0.111182 6.51266e-13 0)
(0.111182 5.87091e-13 0)
(0.111182 5.22798e-13 0)
(0.111182 4.58385e-13 0)
(0.111182 3.9376e-13 0)
(0.111182 3.29393e-13 0)
(0.111182 2.64823e-13 0)
(0.111182 2.00115e-13 0)
(0.111182 1.35309e-13 0)
(0.111182 7.07382e-14 0)
(0.111182 6.73285e-15 0)
(0.111182 -5.76129e-14 0)
(0.111182 -1.21237e-13 0)
(0.111182 -1.85133e-13 0)
(0.111182 -2.48833e-13 0)
(0.111182 -3.11382e-13 0)
(0.111182 -3.7457e-13 0)
(0.111182 -4.37223e-13 0)
(0.111182 -4.99629e-13 0)
(0.111182 -5.62097e-13 0)
(0.111182 -6.23521e-13 0)
(0.111182 -6.85207e-13 0)
(0.111182 -7.46857e-13 0)
(0.111182 -8.07825e-13 0)
(0.111182 -8.68858e-13 0)
(0.111182 -9.29534e-13 0)
(0.111182 -9.9026e-13 0)
(0.111182 -1.05086e-12 0)
(0.111182 -1.11126e-12 0)
(0.111182 -1.17162e-12 0)
(0.111182 -1.23164e-12 0)
(0.111182 -1.29193e-12 0)
(0.111182 -1.35235e-12 0)
(0.111182 -1.41315e-12 0)
(0.111182 -1.47399e-12 0)
(0.111182 -1.53461e-12 0)
(0.111182 -1.59634e-12 0)
(0.111182 -1.65791e-12 0)
(0.111182 -1.72054e-12 0)
(0.111182 -1.784e-12 0)
(0.111182 -1.84733e-12 0)
(0.111182 -1.91263e-12 0)
(0.111182 -1.97881e-12 0)
(0.111182 -2.0463e-12 0)
(0.111182 -2.1158e-12 0)
(0.111182 -2.18632e-12 0)
(0.111182 -2.25954e-12 0)
(0.111182 -2.33542e-12 0)
(0.111182 -2.41357e-12 0)
(0.111182 -2.49515e-12 0)
(0.111182 -2.58007e-12 0)
(0.111182 -2.66937e-12 0)
(0.111182 -2.76344e-12 0)
(0.111182 -2.86262e-12 0)
(0.111182 -2.96784e-12 0)
(0.111182 -3.0796e-12 0)
(0.111182 -3.1991e-12 0)
(0.111182 -3.32724e-12 0)
(0.111182 -3.46511e-12 0)
(0.111182 -3.61391e-12 0)
(0.111182 -3.77422e-12 0)
(0.111182 -3.94899e-12 0)
(0.111182 -4.13898e-12 0)
(0.111182 -4.34628e-12 0)
(0.111182 -4.57299e-12 0)
(0.111182 -4.82047e-12 0)
(0.111182 -5.09281e-12 0)
(0.111182 -5.39189e-12 0)
(0.111182 -5.72095e-12 0)
(0.111182 -6.08354e-12 0)
(0.111182 -6.48246e-12 0)
(0.111182 -6.92246e-12 0)
(0.111182 -7.40804e-12 0)
(0.111182 -7.94357e-12 0)
(0.111182 -8.53382e-12 0)
(0.111182 -9.1839e-12 0)
(0.111182 -9.90016e-12 0)
(0.111182 -1.06881e-11 0)
(0.111182 -1.15538e-11 0)
(0.111182 -1.25034e-11 0)
(0.111182 -1.35434e-11 0)
(0.111182 -1.4681e-11 0)
(0.111182 -1.59218e-11 0)
(0.111182 -1.72724e-11 0)
(0.111182 -1.87387e-11 0)
(0.111182 -2.03248e-11 0)
(0.111182 -2.20355e-11 0)
(0.111182 -2.38706e-11 0)
(0.111182 -2.58268e-11 0)
(0.111182 -2.78938e-11 0)
(0.111182 -3.00496e-11 0)
(0.111182 -3.22585e-11 0)
(0.111182 -3.44568e-11 0)
(0.111182 -3.65438e-11 0)
(0.111182 -3.83605e-11 0)
(0.111182 -3.96603e-11 0)
(0.111182 -4.00665e-11 0)
(0.111182 -3.90051e-11 0)
(0.111182 -3.56094e-11 0)
(0.111182 -2.85751e-11 0)
(0.111182 -1.59175e-11 0)
(0.111182 5.56049e-12 0)
(0.111182 4.13216e-11 0)
(0.111182 9.76286e-11 0)
(0.111182 1.82754e-10 0)
(0.111182 3.05007e-10 0)
(0.111182 4.6518e-10 0)
(0.111182 6.35169e-10 0)
(0.111182 7.24942e-10 0)
(0.111182 6.11473e-10 0)
(0.182782 6.56612e-10 0)
(0.182782 -1.11426e-10 0)
(0.182782 -6.99779e-10 0)
(0.182782 -9.84561e-10 0)
(0.182782 -1.06089e-09 0)
(0.182782 -1.04291e-09 0)
(0.182782 -9.82845e-10 0)
(0.182782 -9.03938e-10 0)
(0.182782 -8.19381e-10 0)
(0.182782 -7.35692e-10 0)
(0.182782 -6.55962e-10 0)
(0.182782 -5.81602e-10 0)
(0.182782 -5.13151e-10 0)
(0.182782 -4.50661e-10 0)
(0.182782 -3.9391e-10 0)
(0.182782 -3.42529e-10 0)
(0.182782 -2.96082e-10 0)
(0.182782 -2.54119e-10 0)
(0.182782 -2.16207e-10 0)
(0.182782 -1.81941e-10 0)
(0.182782 -1.50954e-10 0)
(0.182782 -1.2292e-10 0)
(0.182782 -9.75472e-11 0)
(0.182782 -7.45754e-11 0)
(0.182782 -5.37743e-11 0)
(0.182782 -3.49383e-11 0)
(0.182782 -1.78829e-11 0)
(0.182782 -2.44025e-12 0)
(0.182782 1.1535e-11 0)
(0.182782 2.4169e-11 0)
(0.182782 3.5591e-11 0)
(0.182782 4.59097e-11 0)
(0.182782 5.52214e-11 0)
(0.182782 6.36135e-11 0)
(0.182782 7.1165e-11 0)
(0.182782 7.79472e-11 0)
(0.182782 8.4025e-11 0)
(0.182782 8.94564e-11 0)
(0.182782 9.4294e-11 0)
(0.182782 9.85853e-11 0)
(0.182782 1.02373e-10 0)
(0.182782 1.05697e-10 0)
(0.182782 1.08592e-10 0)
(0.182782 1.11091e-10 0)
(0.182782 1.13222e-10 0)
(0.182782 1.15013e-10 0)
(0.182782 1.16488e-10 0)
(0.182782 1.17668e-10 0)
(0.182782 1.18575e-10 0)
(0.182782 1.19228e-10 0)
(0.182782 1.19643e-10 0)
(0.182782 1.19838e-10 0)
(0.182782 1.19826e-10 0)
(0.182782 1.19621e-10 0)
(0.182782 1.19236e-10 0)
(0.182782 1.18683e-10 0)
(0.182782 1.17973e-10 0)
(0.182782 1.17117e-10 0)
(0.182782 1.16124e-10 0)
(0.182782 1.15003e-10 0)
(0.182782 1.13763e-10 0)
(0.182782 1.12412e-10 0)
(0.182782 1.10958e-10 0)
(0.182782 1.09409e-10 0)
(0.182782 1.0777e-10 0)
(0.182782 1.0605e-10 0)
(0.182782 1.04254e-10 0)
(0.182782 1.02389e-10 0)
(0.182782 1.0046e-10 0)
(0.182782 9.84739e-11 0)
(0.182782 9.6435e-11 0)
(0.182782 9.43496e-11 0)
(0.182782 9.22224e-11 0)
(0.182782 9.00584e-11 0)
(0.182782 8.78623e-11 0)
(0.182782 8.56389e-11 0)
(0.182782 8.33928e-11 0)
(0.182782 8.11283e-11 0)
(0.182782 7.88495e-11 0)
(0.182782 7.65608e-11 0)
(0.182782 7.42663e-11 0)
(0.182782 7.19694e-11 0)
(0.182782 6.96744e-11 0)
(0.182782 6.73849e-11 0)
(0.182782 6.51043e-11 0)
(0.182782 6.28359e-11 0)
(0.182782 6.05832e-11 0)
(0.182782 5.83495e-11 0)
(0.182782 5.61375e-11 0)
(0.182782 5.39501e-11 0)
(0.182782 5.17902e-11 0)
(0.182782 4.96608e-11 0)
(0.182782 4.7564e-11 0)
(0.182782 4.55026e-11 0)
(0.182782 4.34784e-11 0)
(0.182782 4.14935e-11 0)
(0.182782 3.95505e-11 0)
(0.182782 3.7651e-11 0)
(0.182782 3.57967e-11 0)
(0.182782 3.39891e-11 0)
(0.182782 3.22295e-11 0)
(0.182782 3.05198e-11 0)
(0.182782 2.88608e-11 0)
(0.182782 2.72538e-11 0)
(0.182782 2.56994e-11 0)
(0.182782 2.41982e-11 0)
(0.182782 2.2751e-11 0)
(0.182782 2.13588e-11 0)
(0.182782 2.00217e-11 0)
(0.182782 1.87394e-11 0)
(0.182782 1.75126e-11 0)
(0.182782 1.63408e-11 0)
(0.182782 1.52244e-11 0)
(0.182782 1.4163e-11 0)
(0.182782 1.31559e-11 0)
(0.182782 1.22031e-11 0)
(0.182782 1.13035e-11 0)
(0.182782 1.04567e-11 0)
(0.182782 9.66214e-12 0)
(0.182782 8.91858e-12 0)
(0.182782 8.22489e-12 0)
(0.182782 7.58014e-12 0)
(0.182782 6.98379e-12 0)
(0.182782 6.4342e-12 0)
(0.182782 5.92948e-12 0)
(0.182782 5.46884e-12 0)
(0.182782 5.05092e-12 0)
(0.182782 4.67424e-12 0)
(0.182782 4.33702e-12 0)
(0.182782 4.03779e-12 0)
(0.182782 3.77523e-12 0)
(0.182782 3.54741e-12 0)
(0.182782 3.35286e-12 0)
(0.182782 3.19001e-12 0)
(0.182782 3.05681e-12 0)
(0.182782 2.95177e-12 0)
(0.182782 2.87317e-12 0)
(0.182782 2.81976e-12 0)
(0.182782 2.78955e-12 0)
(0.182782 2.78037e-12 0)
(0.182782 2.79113e-12 0)
(0.182782 2.82013e-12 0)
(0.182782 2.86621e-12 0)
(0.182782 2.92725e-12 0)
(0.182782 3.00137e-12 0)
(0.182782 3.08749e-12 0)
(0.182782 3.184e-12 0)
(0.182782 3.29005e-12 0)
(0.182782 3.4039e-12 0)
(0.182782 3.52383e-12 0)
(0.182782 3.64873e-12 0)
(0.182782 3.77767e-12 0)
(0.182782 3.90957e-12 0)
(0.182782 4.04272e-12 0)
(0.182782 4.17616e-12 0)
(0.182782 4.3095e-12 0)
(0.182782 4.44141e-12 0)
(0.182782 4.57076e-12 0)
(0.182782 4.69737e-12 0)
(0.182782 4.81982e-12 0)
(0.182782 4.93738e-12 0)
(0.182782 5.04975e-12 0)
(0.182782 5.15656e-12 0)
(0.182782 5.25637e-12 0)
(0.182782 5.34911e-12 0)
(0.182782 5.43505e-12 0)
(0.182782 5.51264e-12 0)
(0.182782 5.58242e-12 0)
(0.182782 5.64402e-12 0)
(0.182782 5.69673e-12 0)
(0.182782 5.74045e-12 0)
(0.182782 5.77501e-12 0)
(0.182782 5.80105e-12 0)
(0.182782 5.81785e-12 0)
(0.182782 5.82524e-12 0)
(0.182782 5.82377e-12 0)
(0.182782 5.81272e-12 0)
(0.182782 5.79288e-12 0)
(0.182782 5.76447e-12 0)
(0.182782 5.72673e-12 0)
(0.182782 5.68054e-12 0)
(0.182782 5.62596e-12 0)
(0.182782 5.56311e-12 0)
(0.182782 5.49243e-12 0)
(0.182782 5.41402e-12 0)
(0.182782 5.32792e-12 0)
(0.182782 5.2344e-12 0)
(0.182782 5.13448e-12 0)
(0.182782 5.02751e-12 0)
(0.182782 4.91401e-12 0)
(0.182782 4.79511e-12 0)
(0.182782 4.66999e-12 0)
(0.182782 4.53974e-12 0)
(0.182782 4.40465e-12 0)
(0.182782 4.26446e-12 0)
(0.182782 4.11963e-12 0)
(0.182782 3.97048e-12 0)
(0.182782 3.81806e-12 0)
(0.182782 3.66213e-12 0)
(0.182782 3.50238e-12 0)
(0.182782 3.34014e-12 0)
(0.182782 3.1752e-12 0)
(0.182782 3.0076e-12 0)
(0.182782 2.83811e-12 0)
(0.182782 2.66691e-12 0)
(0.182782 2.49419e-12 0)
(0.182782 2.3199e-12 0)
(0.182782 2.14467e-12 0)
(0.182782 1.9682e-12 0)
(0.182782 1.79123e-12 0)
(0.182782 1.6139e-12 0)
(0.182782 1.4358e-12 0)
(0.182782 1.25815e-12 0)
(0.182782 1.08001e-12 0)
(0.182782 9.02176e-13 0)
(0.182782 7.25288e-13 0)
(0.182782 5.48056e-13 0)
(0.182782 3.71613e-13 0)
(0.182782 1.95823e-13 0)
(0.182782 2.0576e-14 0)
(0.182782 -1.53034e-13 0)
(0.182782 -3.26084e-13 0)
(0.182782 -4.98424e-13 0)
(0.182782 -6.69857e-13 0)
(0.182782 -8.4022e-13 0)
(0.182782 -1.00869e-12 0)
(0.182782 -1.17658e-12 0)
(0.182782 -1.34344e-12 0)
(0.182782 -1.50902e-12 0)
(0.182782 -1.67334e-12 0)
(0.182782 -1.83617e-12 0)
(0.182782 -1.99825e-12 0)
(0.182782 -2.15912e-12 0)
(0.182782 -2.31907e-12 0)
(0.182782 -2.47812e-12 0)
(0.182782 -2.63587e-12 0)
(0.182782 -2.79302e-12 0)
(0.182782 -2.94932e-12 0)
(0.182782 -3.10531e-12 0)
(0.182782 -3.26047e-12 0)
(0.182782 -3.41462e-12 0)
(0.182782 -3.56959e-12 0)
(0.182782 -3.72416e-12 0)
(0.182782 -3.87926e-12 0)
(0.182782 -4.03497e-12 0)
(0.182782 -4.1904e-12 0)
(0.182782 -4.34786e-12 0)
(0.182782 -4.50656e-12 0)
(0.182782 -4.66709e-12 0)
(0.182782 -4.83035e-12 0)
(0.182782 -4.99537e-12 0)
(0.182782 -5.16461e-12 0)
(0.182782 -5.33805e-12 0)
(0.182782 -5.51582e-12 0)
(0.182782 -5.69958e-12 0)
(0.182782 -5.88941e-12 0)
(0.182782 -6.0872e-12 0)
(0.182782 -6.2938e-12 0)
(0.182782 -6.50997e-12 0)
(0.182782 -6.73751e-12 0)
(0.182782 -6.97755e-12 0)
(0.182782 -7.23229e-12 0)
(0.182782 -7.50371e-12 0)
(0.182782 -7.79377e-12 0)
(0.182782 -8.10439e-12 0)
(0.182782 -8.438e-12 0)
(0.182782 -8.7984e-12 0)
(0.182782 -9.18753e-12 0)
(0.182782 -9.60981e-12 0)
(0.182782 -1.00685e-11 0)
(0.182782 -1.05667e-11 0)
(0.182782 -1.11105e-11 0)
(0.182782 -1.1704e-11 0)
(0.182782 -1.23529e-11 0)
(0.182782 -1.30627e-11 0)
(0.182782 -1.38386e-11 0)
(0.182782 -1.46898e-11 0)
(0.182782 -1.56226e-11 0)
(0.182782 -1.66443e-11 0)
(0.182782 -1.77646e-11 0)
(0.182782 -1.89921e-11 0)
(0.182782 -2.03374e-11 0)
(0.182782 -2.18111e-11 0)
(0.182782 -2.34239e-11 0)
(0.182782 -2.51875e-11 0)
(0.182782 -2.71143e-11 0)
(0.182782 -2.92182e-11 0)
(0.182782 -3.15113e-11 0)
(0.182782 -3.4007e-11 0)
(0.182782 -3.67182e-11 0)
(0.182782 -3.96571e-11 0)
(0.182782 -4.28361e-11 0)
(0.182782 -4.62643e-11 0)
(0.182782 -4.99511e-11 0)
(0.182782 -5.39004e-11 0)
(0.182782 -5.8111e-11 0)
(0.182782 -6.25777e-11 0)
(0.182782 -6.72827e-11 0)
(0.182782 -7.21946e-11 0)
(0.182782 -7.72618e-11 0)
(0.182782 -8.24014e-11 0)
(0.182782 -8.74898e-11 0)
(0.182782 -9.23358e-11 0)
(0.182782 -9.66532e-11 0)
(0.182782 -1.00016e-10 0)
(0.182782 -1.01786e-10 0)
(0.182782 -1.01014e-10 0)
(0.182782 -9.62791e-11 0)
(0.182782 -8.54643e-11 0)
(0.182782 -6.54146e-11 0)
(0.182782 -3.1465e-11 0)
(0.182782 2.31191e-11 0)
(0.182782 1.07431e-10 0)
(0.182782 2.33805e-10 0)
(0.182782 4.1598e-10 0)
(0.182782 6.64448e-10 0)
(0.182782 9.73544e-10 0)
(0.182782 1.28622e-09 0)
(0.182782 1.4507e-09 0)
(0.182782 1.25933e-09 0)
(0.252486 1.06958e-09 0)
(0.252486 1.70812e-11 0)
(0.252486 -8.75335e-10 0)
(0.252486 -1.38694e-09 0)
(0.252486 -1.59623e-09 0)
(0.252486 -1.64189e-09 0)
(0.252486 -1.59994e-09 0)
(0.252486 -1.50993e-09 0)
(0.252486 -1.39679e-09 0)
(0.252486 -1.27481e-09 0)
(0.252486 -1.15201e-09 0)
(0.252486 -1.03287e-09 0)
(0.252486 -9.19832e-10 0)
(0.252486 -8.14104e-10 0)
(0.252486 -7.16152e-10 0)
(0.252486 -6.25986e-10 0)
(0.252486 -5.43344e-10 0)
(0.252486 -4.67816e-10 0)
(0.252486 -3.98922e-10 0)
(0.252486 -3.36157e-10 0)
(0.252486 -2.79023e-10 0)
(0.252486 -2.27046e-10 0)
(0.252486 -1.79782e-10 0)
(0.252486 -1.36819e-10 0)
(0.252486 -9.77832e-11 0)
(0.252486 -6.23299e-11 0)
(0.252486 -3.01474e-11 0)
(0.252486 -9.49679e-13 0)
(0.252486 2.55361e-11 0)
(0.252486 4.95273e-11 0)
(0.252486 7.12412e-11 0)
(0.252486 9.08747e-11 0)
(0.252486 1.08605e-10 0)
(0.252486 1.24592e-10 0)
(0.252486 1.3898e-10 0)
(0.252486 1.51903e-10 0)
(0.252486 1.63479e-10 0)
(0.252486 1.73818e-10 0)
(0.252486 1.83018e-10 0)
(0.252486 1.91168e-10 0)
(0.252486 1.98351e-10 0)
(0.252486 2.0464e-10 0)
(0.252486 2.10102e-10 0)
(0.252486 2.148e-10 0)
(0.252486 2.18789e-10 0)
(0.252486 2.22121e-10 0)
(0.252486 2.24843e-10 0)
(0.252486 2.26998e-10 0)
(0.252486 2.28626e-10 0)
(0.252486 2.29762e-10 0)
(0.252486 2.30441e-10 0)
(0.252486 2.30693e-10 0)
(0.252486 2.30548e-10 0)
(0.252486 2.30032e-10 0)
(0.252486 2.2917e-10 0)
(0.252486 2.27984e-10 0)
(0.252486 2.26498e-10 0)
(0.252486 2.2473e-10 0)
(0.252486 2.227e-10 0)
(0.252486 2.20426e-10 0)
(0.252486 2.17925e-10 0)
(0.252486 2.15212e-10 0)
(0.252486 2.12304e-10 0)
(0.252486 2.09214e-10 0)
(0.252486 2.05956e-10 0)
(0.252486 2.02543e-10 0)
(0.252486 1.98988e-10 0)
(0.252486 1.95304e-10 0)
(0.252486 1.91501e-10 0)
(0.252486 1.8759e-10 0)
(0.252486 1.83584e-10 0)
(0.252486 1.79491e-10 0)
(0.252486 1.75323e-10 0)
(0.252486 1.71088e-10 0)
(0.252486 1.66797e-10 0)
(0.252486 1.62458e-10 0)
(0.252486 1.5808e-10 0)
(0.252486 1.53672e-10 0)
(0.252486 1.49242e-10 0)
(0.252486 1.44797e-10 0)
(0.252486 1.40347e-10 0)
(0.252486 1.35897e-10 0)
(0.252486 1.31457e-10 0)
(0.252486 1.27032e-10 0)
(0.252486 1.22629e-10 0)
(0.252486 1.18256e-10 0)
(0.252486 1.13917e-10 0)
(0.252486 1.0962e-10 0)
(0.252486 1.0537e-10 0)
(0.252486 1.01173e-10 0)
(0.252486 9.7033e-11 0)
(0.252486 9.29562e-11 0)
(0.252486 8.8947e-11 0)
(0.252486 8.501e-11 0)
(0.252486 8.11492e-11 0)
(0.252486 7.73683e-11 0)
(0.252486 7.36716e-11 0)
(0.252486 7.00623e-11 0)
(0.252486 6.65435e-11 0)
(0.252486 6.3118e-11 0)
(0.252486 5.97884e-11 0)
(0.252486 5.65572e-11 0)
(0.252486 5.34262e-11 0)
(0.252486 5.03977e-11 0)
(0.252486 4.7473e-11 0)
(0.252486 4.46528e-11 0)
(0.252486 4.19383e-11 0)
(0.252486 3.9331e-11 0)
(0.252486 3.68309e-11 0)
(0.252486 3.44378e-11 0)
(0.252486 3.2152e-11 0)
(0.252486 2.99731e-11 0)
(0.252486 2.7901e-11 0)
(0.252486 2.59349e-11 0)
(0.252486 2.40736e-11 0)
(0.252486 2.23161e-11 0)
(0.252486 2.0661e-11 0)
(0.252486 1.91072e-11 0)
(0.252486 1.76525e-11 0)
(0.252486 1.6295e-11 0)
(0.252486 1.50328e-11 0)
(0.252486 1.38634e-11 0)
(0.252486 1.27853e-11 0)
(0.252486 1.17954e-11 0)
(0.252486 1.08906e-11 0)
(0.252486 1.00686e-11 0)
(0.252486 9.32664e-12 0)
(0.252486 8.66207e-12 0)
(0.252486 8.0714e-12 0)
(0.252486 7.55138e-12 0)
(0.252486 7.09939e-12 0)
(0.252486 6.71206e-12 0)
(0.252486 6.38617e-12 0)
(0.252486 6.1183e-12 0)
(0.252486 5.90527e-12 0)
(0.252486 5.74406e-12 0)
(0.252486 5.63113e-12 0)
(0.252486 5.56361e-12 0)
(0.252486 5.538e-12 0)
(0.252486 5.55064e-12 0)
(0.252486 5.59902e-12 0)
(0.252486 5.67986e-12 0)
(0.252486 5.7905e-12 0)
(0.252486 5.92763e-12 0)
(0.252486 6.08775e-12 0)
(0.252486 6.26843e-12 0)
(0.252486 6.46699e-12 0)
(0.252486 6.68119e-12 0)
(0.252486 6.90815e-12 0)
(0.252486 7.14492e-12 0)
(0.252486 7.38918e-12 0)
(0.252486 7.63913e-12 0)
(0.252486 7.89271e-12 0)
(0.252486 8.14719e-12 0)
(0.252486 8.4008e-12 0)
(0.252486 8.65204e-12 0)
(0.252486 8.89886e-12 0)
(0.252486 9.13984e-12 0)
(0.252486 9.37389e-12 0)
(0.252486 9.5988e-12 0)
(0.252486 9.81325e-12 0)
(0.252486 1.00167e-11 0)
(0.252486 1.02079e-11 0)
(0.252486 1.03855e-11 0)
(0.252486 1.05491e-11 0)
(0.252486 1.06979e-11 0)
(0.252486 1.08306e-11 0)
(0.252486 1.0948e-11 0)
(0.252486 1.10486e-11 0)
(0.252486 1.1132e-11 0)
(0.252486 1.11982e-11 0)
(0.252486 1.12467e-11 0)
(0.252486 1.1278e-11 0)
(0.252486 1.12917e-11 0)
(0.252486 1.12877e-11 0)
(0.252486 1.12665e-11 0)
(0.252486 1.12273e-11 0)
(0.252486 1.11711e-11 0)
(0.252486 1.10983e-11 0)
(0.252486 1.10088e-11 0)
(0.252486 1.09031e-11 0)