/*--------------------------------*- C++ -*----------------------------------*\
| =========                 |                                                 |
| \\      /  F ield         | OpenFOAM: The Open Source CFD Toolbox           |
|  \\    /   O peration     | Version:  2112                                  |
|   \\  /    A nd           | Website:  www.openfoam.com                      |
|    \\/     M anipulation  |                                                 |
\*---------------------------------------------------------------------------*/
FoamFile
{
    version     2.0;
    format      ascii;
    arch        "LSB;label=32;scalar=64";
    class       volScalarField;
    location    "5.92";
    object      p;
}
// * * * * * * * * * * * * * * * * * * * * * * * * * * * * * * * * * * * * * //

dimensions      [0 2 -2 0 0 0 0];

internalField   nonuniform List<scalar> 
66564
(
-2.3477e-09
4.88626e-06
1.12169e-05
1.6542e-05
1.95434e-05
1.96845e-05
1.66473e-05
1.03082e-05
6.45659e-07
-1.23008e-05
-2.84413e-05
-4.76704e-05
-6.98536e-05
-9.48538e-05
-0.000122519
-0.000152699
-0.000185252
-0.000220014
-0.000256824
-0.000295535
-0.000336002
-0.00037807
-0.000421587
-0.000466412
-0.000512422
-0.000559492
-0.000607485
-0.000656266
-0.000705703
-0.00075566
-0.000806025
-0.000856701
-0.000907565
-0.000958516
-0.00100945
-0.00106026
-0.00111083
-0.00116108
-0.00121089
-0.00126019
-0.00130887
-0.00135688
-0.0014041
-0.00145047
-0.00149592
-0.00154037
-0.00158375
-0.00162596
-0.00166695
-0.00170665
-0.00174499
-0.00178191
-0.00181735
-0.00185126
-0.00188357
-0.00191425
-0.00194321
-0.00197041
-0.00199579
-0.0020193
-0.00204089
-0.0020605
-0.00207809
-0.0020936
-0.002107
-0.00211826
-0.00212728
-0.00213405
-0.00213853
-0.00214067
-0.00214042
-0.00213774
-0.00213258
-0.00212491
-0.0021147
-0.00210191
-0.00208648
-0.00206838
-0.00204756
-0.00202398
-0.0019976
-0.00196837
-0.00193625
-0.00190121
-0.00186319
-0.00182216
-0.00177808
-0.00173091
-0.00168061
-0.00162714
-0.00157047
-0.00151056
-0.00144738
-0.00138086
-0.00131097
-0.0012377
-0.001161
-0.00108082
-0.000997146
-0.00090996
-0.000819231
-0.000724928
-0.000627031
-0.00052553
-0.000420399
-0.000311631
-0.000199207
-8.31271e-05
3.66057e-05
0.000159987
0.000287013
0.000417669
0.000551921
0.000689738
0.000831081
0.000975909
0.00112418
0.00127585
0.00143084
0.0015891
0.00175053
0.00191503
0.0020825
0.00225281
0.00242584
0.00260146
0.00277949
0.00295981
0.00314223
-2.55036e-06
2.24384e-06
7.00998e-06
1.05526e-05
1.21653e-05
1.13366e-05
7.76162e-06
1.28715e-06
-8.15743e-06
-2.05764e-05
-3.59315e-05
-5.41418e-05
-7.51278e-05
-9.87732e-05
-0.000124947
-0.000153529
-0.000184383
-0.000217374
-0.000252356
-0.000289184
-0.00032773
-0.000367858
-0.000409422
-0.000452289
-0.000496332
-0.000541418
-0.000587432
-0.000634251
-0.000681745
-0.000729798
-0.00077829
-0.000827113
-0.000876152
-0.000925304
-0.000974469
-0.00102354
-0.00107241
-0.001121
-0.0011692
-0.00121692
-0.00126409
-0.00131061
-0.0013564
-0.00140138
-0.00144547
-0.0014886
-0.00153071
-0.0015717
-0.00161152
-0.00165009
-0.00168736
-0.00172325
-0.00175771
-0.00179068
-0.0018221
-0.00185192
-0.00188007
-0.00190651
-0.00193118
-0.00195402
-0.00197497
-0.001994
-0.00201106
-0.00202608
-0.00203901
-0.00204985
-0.00205851
-0.00206494
-0.00206912
-0.00207101
-0.00207055
-0.00206771
-0.00206244
-0.00205469
-0.00204444
-0.00203165
-0.00201626
-0.00199823
-0.00197753
-0.00195411
-0.00192792
-0.00189893
-0.0018671
-0.00183238
-0.00179472
-0.0017541
-0.00171048
-0.00166381
-0.00161405
-0.00156116
-0.00150511
-0.00144587
-0.00138339
-0.00131764
-0.00124857
-0.00117615
-0.00110035
-0.00102113
-0.000938464
-0.000852338
-0.00076272
-0.000669579
-0.000572895
-0.000472664
-0.000368857
-0.000261467
-0.000150476
-3.58919e-05
8.22902e-05
0.000204065
0.000329425
0.000458352
0.000590816
0.000726784
0.00086622
0.00100908
0.00115533
0.0013049
0.00145775
0.0016138
0.00177297
0.00193516
0.00210025
0.00226813
0.00243867
0.00261175
0.0027872
0.00296488
0.00314461
-5.46277e-06
1.67043e-07
4.49886e-06
7.193e-06
8.03636e-06
6.63371e-06
2.72002e-06
-3.84268e-06
-1.31264e-05
-2.51621e-05
-3.99253e-05
-5.7371e-05
-7.7436e-05
-0.00010002
-0.000125025
-0.000152326
-0.000181811
-0.000213362
-0.000246841
-0.000282116
-0.000319064
-0.000357554
-0.000397467
-0.000438673
-0.000481036
-0.000524435
-0.000568752
-0.000613869
-0.000659677
-0.000706062
-0.000752905
-0.000800097
-0.000847533
-0.000895094
-0.000942685
-0.000990208
-0.00103757
-0.00108466
-0.00113141
-0.00117772
-0.0012235
-0.00126867
-0.00131315
-0.00135685
-0.00139971
-0.00144163
-0.00148256
-0.00152243
-0.00156116
-0.00159868
-0.00163494
-0.00166986
-0.0017034
-0.00173547
-0.00176605
-0.00179506
-0.00182243
-0.00184814
-0.00187212
-0.00189431
-0.00191464
-0.0019331
-0.00194963
-0.00196415
-0.00197662
-0.00198703
-0.00199531
-0.00200141
-0.00200527
-0.00200689
-0.00200621
-0.00200318
-0.00199775
-0.0019899
-0.00197958
-0.00196674
-0.00195135
-0.00193337
-0.00191274
-0.00188943
-0.00186339
-0.0018346
-0.00180299
-0.00176854
-0.0017312
-0.00169093
-0.0016477
-0.00160147
-0.00155218
-0.00149981
-0.00144433
-0.00138568
-0.00132385
-0.00125878
-0.00119044
-0.0011188
-0.00104383
-0.000965487
-0.000883749
-0.000798598
-0.000710003
-0.000617933
-0.000522371
-0.000423317
-0.000320737
-0.000214624
-0.000104966
8.22656e-06
0.000124963
0.000245238
0.000369044
0.000496357
0.000627149
0.000761388
0.000899042
0.00104006
0.00118441
0.00133203
0.00148286
0.00163685
0.0017939
0.00195391
0.00211676
0.00228236
0.00245057
0.00262126
0.00279427
0.00296947
0.00314669
-7.65427e-06
-8.35597e-07
3.71313e-06
6.13293e-06
6.6352e-06
4.95223e-06
8.70077e-07
-5.71345e-06
-1.48649e-05
-2.66017e-05
-4.09118e-05
-5.77658e-05
-7.70955e-05
-9.88341e-05
-0.00012289
-0.000149151
-0.000177513
-0.000207863
-0.00024009
-0.000274069
-0.000309666
-0.000346769
-0.000385269
-0.000425037
-0.000465955
-0.000507904
-0.000550759
-0.000594411
-0.000638753
-0.000683675
-0.000729066
-0.000774826
-0.000820841
-0.000867004
-0.000913215
-0.000959375
-0.00100539
-0.00105117
-0.00109663
-0.00114167
-0.00118622
-0.00123018
-0.00127348
-0.00131605
-0.00135779
-0.00139864
-0.00143853
-0.00147738
-0.00151513
-0.0015517
-0.00158705
-0.0016211
-0.00165379
-0.00168507
-0.00171488
-0.00174316
-0.00176984
-0.00179489
-0.00181824
-0.00183983
-0.00185962
-0.00187755
-0.00189359
-0.00190767
-0.00191972
-0.00192973
-0.00193767
-0.00194345
-0.00194705
-0.00194843
-0.00194753
-0.00194433
-0.00193877
-0.00193083
-0.00192044
-0.00190757
-0.00189218
-0.00187424
-0.00185369
-0.00183048
-0.00180459
-0.00177597
-0.00174458
-0.00171038
-0.00167333
-0.00163339
-0.00159053
-0.00154469
-0.00149585
-0.00144396
-0.00138899
-0.0013309
-0.00126965
-0.00120522
-0.00113757
-0.00106665
-0.000992439
-0.000914903
-0.00083402
-0.000749766
-0.00066211
-0.000571027
-0.000476498
-0.000378524
-0.000277071
-0.000172131
-6.36989e-05
4.8216e-05
0.000163626
0.000282528
0.000404907
0.000530742
0.000660004
0.000792663
0.000928687
0.00106803
0.00121064
0.00135648
0.00150548
0.00165758
0.0018127
0.00197072
0.00213155
0.00229507
0.00246115
0.00262967
0.00280047
0.00297342
0.00314835
-8.24883e-06
-3.28962e-07
4.60578e-06
6.97425e-06
7.32208e-06
5.48866e-06
1.32299e-06
-5.25063e-06
-1.42717e-05
-2.57498e-05
-3.96782e-05
-5.60145e-05
-7.47124e-05
-9.57041e-05
-0.000118909
-0.000144243
-0.000171591
-0.000200853
-0.000231932
-0.000264707
-0.000299065
-0.000334892
-0.000372074
-0.000410498
-0.000450055
-0.000490627
-0.000532104
-0.000574378
-0.000617334
-0.000660869
-0.00070488
-0.000749269
-0.000793921
-0.000838741
-0.000883626
-0.000928476
-0.000973204
-0.00101772
-0.00106193
-0.00110576
-0.00114911
-0.00119191
-0.00123407
-0.00127553
-0.00131619
-0.001356
-0.00139487
-0.00143274
-0.00146954
-0.0015052
-0.00153966
-0.00157285
-0.00160473
-0.00163523
-0.00166428
-0.00169185
-0.00171786
-0.00174226
-0.001765
-0.00178603
-0.00180528
-0.0018227
-0.00183825
-0.00185189
-0.00186355
-0.00187319
-0.00188078
-0.00188626
-0.0018896
-0.00189075
-0.00188966
-0.00188629
-0.00188061
-0.00187258
-0.00186213
-0.00184924
-0.00183387
-0.00181596
-0.00179549
-0.0017724
-0.00174666
-0.00171823
-0.00168706
-0.00165312
-0.00161636
-0.00157676
-0.00153427
-0.00148883
-0.00144043
-0.00138903
-0.00133458
-0.00127705
-0.0012164
-0.00115261
-0.00108563
-0.00101544
-0.000941988
-0.000865264
-0.000785234
-0.000701873
-0.000615152
-0.000525052
-0.000431552
-0.00033465
-0.000234317
-0.000130545
-2.33309e-05
8.73188e-05
0.000201415
0.000318955
0.000439923
0.000564297
0.000692051
0.000823151
0.000957566
0.00109525
0.00123616
0.00138024
0.00152744
0.00167769
0.00183091
0.00198698
0.00214581
0.0023073
0.0024713
0.0026377
0.00280634
0.00297709
0.00314979
-6.46688e-06
2.25169e-06
7.51872e-06
9.91466e-06
1.01895e-05
8.27201e-06
4.05321e-06
-2.49827e-06
-1.14059e-05
-2.26732e-05
-3.62734e-05
-5.21754e-05
-7.03311e-05
-9.06715e-05
-0.000113134
-0.000137637
-0.00016408
-0.000192369
-0.000222398
-0.000254069
-0.000287283
-0.000321925
-0.000357889
-0.000395071
-0.000433352
-0.000472627
-0.000512799
-0.000553761
-0.000595403
-0.000637625
-0.000680323
-0.000723397
-0.00076675
-0.000810274
-0.000853876
-0.000897465
-0.000940947
-0.000984234
-0.00102724
-0.00106988
-0.00111208
-0.00115374
-0.0011948
-0.00123517
-0.00127478
-0.00131357
-0.00135144
-0.00138834
-0.00142421
-0.00145897
-0.00149256
-0.00152491
-0.00155598
-0.00158571
-0.00161402
-0.00164088
-0.00166622
-0.00168999
-0.00171212
-0.00173257
-0.0017513
-0.00176822
-0.00178329
-0.0017965
-0.00180776
-0.00181703
-0.00182428
-0.00182946
-0.00183253
-0.00183345
-0.00183217
-0.00182864
-0.00182284
-0.00181471
-0.00180421
-0.0017913
-0.00177594
-0.00175809
-0.00173769
-0.00171472
-0.00168913
-0.00166089
-0.00162994
-0.00159625
-0.0015598
-0.00152053
-0.00147841
-0.00143338
-0.00138543
-0.00133451
-0.00128058
-0.00122361
-0.00116356
-0.00110041
-0.00103412
-0.000964647
-0.000891964
-0.000816052
-0.000736877
-0.00065441
-0.000568624
-0.000479509
-0.000387041
-0.000291213
-0.000191999
-8.93969e-05
1.6598e-05
0.000125983
0.000238768
0.00035495
0.000474509
0.000597425
0.000723675
0.000853226
0.000986041
0.00112207
0.00126128
0.00140362
0.00154903
0.00169744
0.00184876
0.0020029
0.00215976
0.00231923
0.00248117
0.00264546
0.00281197
0.00298053
0.00315102
-1.86891e-06
7.29352e-06
1.27561e-05
1.51653e-05
1.5383e-05
1.33819e-05
9.10733e-06
2.55592e-06
-6.28083e-06
-1.73839e-05
-3.07243e-05
-4.62704e-05
-6.39696e-05
-8.3764e-05
-0.000105583
-0.000129356
-0.000155005
-0.000182428
-0.000211523
-0.000242205
-0.000274376
-0.000307931
-0.000342779
-0.00037881
-0.000415918
-0.000453998
-0.000492951
-0.00053268
-0.000573087
-0.000614068
-0.000655525
-0.000697358
-0.000739473
-0.000781767
-0.000824148
-0.00086653
-0.000908819
-0.00095093
-0.000992777
-0.00103428
-0.00107536
-0.00111593
-0.00115591
-0.00119524
-0.00123383
-0.00127162
-0.00130853
-0.00134449
-0.00137945
-0.00141332
-0.00144606
-0.0014776
-0.00150788
-0.00153685
-0.00156444
-0.0015906
-0.00161528
-0.00163842
-0.00165995
-0.00167984
-0.00169804
-0.00171447
-0.00172908
-0.00174185
-0.00175272
-0.00176163
-0.00176855
-0.00177343
-0.00177624
-0.00177693
-0.00177545
-0.00177177
-0.00176584
-0.00175762
-0.00174707
-0.00173414
-0.0017188
-0.00170099
-0.00168067
-0.00165782
-0.00163238
-0.00160432
-0.0015736
-0.00154017
-0.00150401
-0.00146507
-0.00142332
-0.0013787
-0.0013312
-0.00128076
-0.00122735
-0.00117094
-0.0011115
-0.00104898
-0.00098337
-0.000914616
-0.000842697
-0.00076759
-0.000689263
-0.000607683
-0.00052283
-0.000434695
-0.000343254
-0.000248493
-0.000150393
-4.89561e-05
5.58275e-05
0.00016396
0.000275445
0.000390279
0.000508441
0.000629914
0.000754677
0.000882694
0.00101392
0.00114832
0.00128585
0.00142647
0.00157011
0.0017167
0.00186615
0.00201839
0.0021733
0.00233077
0.00249068
0.0026529
0.0028173
0.00298373
0.00315203
5.79805e-06
1.50471e-05
2.05203e-05
2.28596e-05
2.29612e-05
2.08415e-05
1.64721e-05
9.87078e-06
1.05866e-06
-9.9425e-06
-2.30963e-05
-3.83591e-05
-5.56921e-05
-7.50321e-05
-9.63086e-05
-0.000119458
-0.000144404
-0.000171054
-0.000199326
-0.000229124
-0.000260357
-0.000292933
-0.000326757
-0.000361728
-0.000397754
-0.00043473
-0.000472553
-0.000511137
-0.000550389
-0.000590204
-0.000630489
-0.000671153
-0.000712093
-0.00075322
-0.000794442
-0.000835671
-0.000876821
-0.000917809
-0.000958549
-0.000998958
-0.00103896
-0.00107848
-0.00111743
-0.00115575
-0.00119335
-0.00123018
-0.00126615
-0.0013012
-0.00133527
-0.00136829
-0.0014002
-0.00143095
-0.00146046
-0.00148868
-0.00151556
-0.00154104
-0.00156507
-0.00158759
-0.00160855
-0.00162789
-0.00164556
-0.00166152
-0.00167568
-0.00168802
-0.0016985
-0.00170706
-0.00171365
-0.00171825
-0.00172079
-0.00172126
-0.00171959
-0.00171575
-0.0017097
-0.00170139
-0.00169078
-0.00167784
-0.00166251
-0.00164475
-0.00162452
-0.00160179
-0.0015765
-0.00154862
-0.00151812
-0.00148495
-0.00144908
-0.00141048
-0.00136909
-0.00132488
-0.00127782
-0.00122787
-0.00117498
-0.00111913
-0.00106028
-0.000998408
-0.000933469
-0.000865432
-0.000794273
-0.000719966
-0.000642479
-0.000561783
-0.000477858
-0.000390697
-0.000300273
-0.000206574
-0.000109584
-9.30162e-06
9.42821e-05
0.000201172
0.000311371
0.000424871
0.000541653
0.000661699
0.00078499
0.000911489
0.00104115
0.00117394
0.00130982
0.00144873
0.00159062
0.00173541
0.00188303
0.00203339
0.00218638
0.0023419
0.00249981
0.00266
0.00282233
0.00298665
0.00315282
1.66477e-05
2.56561e-05
3.0931e-05
3.3068e-05
3.29657e-05
3.06553e-05
2.61224e-05
1.94145e-05
1.05632e-05
-4.02867e-07
-1.34407e-05
-2.85059e-05
-4.5554e-05
-6.45233e-05
-8.53559e-05
-0.000107981
-0.000132317
-0.000158296
-0.000185832
-0.000214841
-0.00024524
-0.000276934
-0.000309828
-0.000343835
-0.000378865
-0.000414818
-0.000451597
-0.000489118
-0.00052729
-0.000566015
-0.000605202
-0.00064476
-0.000684592
-0.000724613
-0.000764735
-0.000804869
-0.000844933
-0.000884847
-0.000924528
-0.000963893
-0.00100286
-0.00104137
-0.00107933
-0.00111667
-0.00115332
-0.00118921
-0.00122428
-0.00125845
-0.00129166
-0.00132385
-0.00135496
-0.00138492
-0.00141368
-0.00144118
-0.00146737
-0.00149218
-0.00151557
-0.00153749
-0.00155789
-0.00157668
-0.00159384
-0.00160932
-0.00162305
-0.00163498
-0.00164507
-0.00165328
-0.00165956
-0.00166387
-0.00166617
-0.00166641
-0.00166456
-0.00166057
-0.00165439
-0.001646
-0.00163534
-0.00162238
-0.00160706
-0.00158935
-0.00156921
-0.0015466
-0.00152146
-0.00149377
-0.00146349
-0.00143058
-0.001395
-0.00135673
-0.00131571
-0.00127191
-0.00122529
-0.00117582
-0.00112345
-0.00106816
-0.00100992
-0.000948674
-0.000884405
-0.000817083
-0.000746682
-0.00067317
-0.000596517
-0.000516701
-0.0004337
-0.000347507
-0.000258095
-0.000165451
-6.95617e-05
2.95744e-05
0.000131968
0.000237628
0.000346552
0.000458732
0.000574148
0.000692783
0.000814619
0.000939617
0.00106773
0.00119893
0.00133317
0.0014704
0.00161057
0.00175359
0.00189941
0.00204792
0.00219902
0.00235261
0.00250856
0.00266674
0.00282704
0.0029893
0.00315337
3.06953e-05
3.91785e-05
4.40379e-05
4.58315e-05
4.5412e-05
4.28155e-05
3.80443e-05
3.11543e-05
2.21893e-05
1.11897e-05
-1.80881e-06
-1.67587e-05
-3.36017e-05
-5.22934e-05
-7.27669e-05
-9.49519e-05
-0.000118783
-0.000144186
-0.00017108
-0.000199394
-0.000229047
-0.000259947
-0.000292007
-0.000325139
-0.000359258
-0.000394271
-0.000430089
-0.000466625
-0.00050379
-0.000541498
-0.000579657
-0.000618172
-0.000656962
-0.00069594
-0.000735019
-0.000774116
-0.000813149
-0.000852039
-0.000890708
-0.000929075
-0.000967058
-0.00100459
-0.00104159
-0.00107799
-0.00111372
-0.00114871
-0.0011829
-0.00121622
-0.0012486
-0.00127998
-0.00131031
-0.00133951
-0.00136754
-0.00139434
-0.00141985
-0.00144402
-0.00146679
-0.00148812
-0.00150795
-0.00152622
-0.00154288
-0.00155789
-0.00157119
-0.00158271
-0.00159243
-0.0016003
-0.00160628
-0.00161031
-0.00161236
-0.00161239
-0.00161035
-0.00160621
-0.00159992
-0.00159144
-0.00158073
-0.00156775
-0.00155245
-0.0015348
-0.00151474
-0.00149225
-0.00146727
-0.00143976
-0.0014097
-0.00137705
-0.00134177
-0.00130382
-0.00126317
-0.00121978
-0.00117361
-0.00112462
-0.00107277
-0.00101804
-0.000960389
-0.000899777
-0.000836179
-0.000769572
-0.000699925
-0.000627203
-0.000551381
-0.000472441
-0.000390362
-0.000305129
-0.00021672
-0.000125124
-3.03298e-05
6.767e-05
0.000168887
0.000273329
0.000380989
0.000491858
0.000605922
0.000723164
0.00084356
0.00096707
0.00109365
0.00122328
0.00135591
0.00149149
0.00162995
0.00177123
0.00191526
0.00206196
0.0022112
0.00236289
0.00251691
0.00267314
0.00283144
0.00299167
0.00315368
4.79014e-05
5.55924e-05
5.9853e-05
6.11551e-05
6.02878e-05
5.73067e-05
5.22096e-05
4.50534e-05
3.58985e-05
2.47807e-05
1.17448e-05
-3.16266e-06
-1.98934e-05
-3.83905e-05
-5.85855e-05
-8.04206e-05
-0.000103834
-0.000128749
-0.0001551
-0.000182811
-0.000211805
-0.000241999
-0.000273312
-0.000305654
-0.000338943
-0.0003731
-0.000408034
-0.000443659
-0.000479896
-0.000516653
-0.00055385
-0.000591394
-0.000629204
-0.000667198
-0.000705294
-0.000743411
-0.000781467
-0.000819385
-0.000857089
-0.0008945
-0.00093154
-0.000968136
-0.00100422
-0.00103972
-0.00107456
-0.00110869
-0.00114202
-0.00117451
-0.00120609
-0.00123669
-0.00126626
-0.00129473
-0.00132205
-0.00134817
-0.00137302
-0.00139656
-0.00141873
-0.00143948
-0.00145876
-0.00147652
-0.00149269
-0.00150723
-0.0015201
-0.00153123
-0.00154059
-0.00154813
-0.0015538
-0.00155756
-0.00155938
-0.0015592
-0.00155699
-0.0015527
-0.00154629
-0.00153773
-0.00152698
-0.00151398
-0.00149869
-0.00148109
-0.00146113
-0.00143875
-0.00141392
-0.00138661
-0.00135678
-0.00132439
-0.0012894
-0.00125178
-0.0012115
-0.00116852
-0.00112279
-0.00107428
-0.00102295
-0.000968772
-0.000911713
-0.000851732
-0.000788806
-0.000722911
-0.000654013
-0.000582079
-0.000507086
-0.000429019
-0.000347855
-0.000263575
-0.000176164
-8.56098e-05
8.10026e-06
0.000104976
0.000205027
0.000308261
0.000414667
0.000524239
0.000636965
0.000752827
0.000871796
0.000993837
0.00111891
0.00124699
0.00137802
0.00151196
0.00164875
0.00178832
0.0019306
0.0020755
0.00222292
0.00237275
0.00252487
0.00267916
0.00283551
0.00299375
0.00315373
6.81621e-05
7.48533e-05
7.83316e-05
7.90019e-05
7.75723e-05
7.40963e-05
6.85805e-05
6.10779e-05
5.16415e-05
4.03218e-05
2.71695e-05
1.222e-05
-4.47517e-06
-2.28541e-05
-4.28605e-05
-6.4433e-05
-8.75105e-05
-0.000112031
-0.000137925
-0.000165119
-0.000193541
-0.000223117
-0.000253763
-0.000285394
-0.000317939
-0.000351316
-0.00038544
-0.000420229
-0.000455609
-0.000491488
-0.000527786
-0.000564426
-0.000601319
-0.000638389
-0.000675558
-0.000712749
-0.000749882
-0.00078688
-0.000823666
-0.000860166
-0.000896306
-0.000932012
-0.000967214
-0.00100184
-0.00103584
-0.00106912
-0.00110164
-0.00113333
-0.00116412
-0.00119397
-0.00122281
-0.00125057
-0.00127721
-0.00130266
-0.00132687
-0.0013498
-0.00137139
-0.00139157
-0.00141032
-0.00142757
-0.00144327
-0.00145736
-0.0014698
-0.00148055
-0.00148956
-0.00149677
-0.00150215
-0.00150565
-0.00150723
-0.00150685
-0.00150447
-0.00150004
-0.00149352
-0.00148488
-0.00147408
-0.00146106
-0.0014458
-0.00142825
-0.00140838
-0.00138612
-0.00136145
-0.00133433
-0.00130473
-0.0012726
-0.00123791
-0.00120062
-0.00116071
-0.00111813
-0.00107284
-0.00102481
-0.000973994
-0.000920372
-0.000863903
-0.000804553
-0.000742299
-0.000677113
-0.000608963
-0.000537816
-0.000463649
-0.00038645
-0.000306193
-0.000222861
-0.000136438
-4.69174e-05
4.57173e-05
0.000141478
0.000240375
0.00034241
0.000447575
0.000555862
0.000667262
0.000781757
0.000899315
0.0010199
0.00114349
0.00127003
0.0013995
0.00153183
0.00166697
0.00180485
0.0019454
0.00208854
0.00223416
0.00238216
0.00253242
0.00268482
0.00283924
0.00299552
0.00315353
9.13692e-05
9.68672e-05
9.94123e-05
9.93287e-05
9.72174e-05
9.31375e-05
8.71088e-05
7.91699e-05
6.93732e-05
5.77715e-05
4.44097e-05
2.93359e-05
1.26021e-05
-5.74221e-06
-2.56408e-05
-4.70327e-05
-6.98622e-05
-9.40721e-05
-0.000119591
-0.00014635
-0.000174285
-0.000203322
-0.00023338
-0.000264384
-0.000296261
-0.000328932
-0.000362321
-0.00039635
-0.000430937
-0.000466006
-0.000501475
-0.00053727
-0.000573309
-0.000609517
-0.000645817
-0.000682135
-0.000718397
-0.000754524
-0.00079044
-0.000826075
-0.000861357
-0.000896212
-0.000930571
-0.000964369
-0.000997543
-0.00103003
-0.00106175
-0.00109267
-0.00112272
-0.00115184
-0.00117996
-0.00120704
-0.00123302
-0.00125783
-0.00128142
-0.00130376
-0.00132478
-0.00134442
-0.00136264
-0.00137939
-0.00139462
-0.00140828
-0.00142031
-0.00143068
-0.00143934
-0.00144624
-0.00145133
-0.00145458
-0.00145594
-0.00145536
-0.00145281
-0.00144824
-0.00144162
-0.0014329
-0.00142205
-0.00140902
-0.00139378
-0.00137629
-0.0013565
-0.00133437
-0.00130986
-0.00128294
-0.00125357
-0.00122169
-0.0011873
-0.00115035
-0.00111081
-0.00106863
-0.00102378
-0.00097622
-0.000925926
-0.000872854
-0.000816974
-0.000758255
-0.000696674
-0.000632196
-0.000564789
-0.000494426
-0.000421084
-0.000344748
-0.000265392
-0.000182999
-9.75582e-05
-9.06211e-06
8.25066e-05
0.000177164
0.000274916
0.000375761
0.000479694
0.00058671
0.000696799
0.000809939
0.000926102
0.00104526
0.00116737
0.00129241
0.00142032
0.00155107
0.00168458
0.0018208
0.00195966
0.00210107
0.00224492
0.00239111
0.00253954
0.00269008
0.00284261
0.00299698
0.00315305
0.000117386
0.000121536
0.000123015
0.000122059
0.000119166
0.000114383
0.000107735
9.92717e-05
8.9037e-05
7.70688e-05
6.34191e-05
4.81435e-05
3.12868e-05
1.28968e-05
-6.97144e-06
-2.82653e-05
-5.09319e-05
-7.49095e-05
-0.000100134
-0.000126543
-0.00015407
-0.000182641
-0.000212191
-0.000242644
-0.000273926
-0.000305967
-0.000338693
-0.000372028
-0.000405895
-0.000440218
-0.000474925
-0.000509937
-0.000545183
-0.000580587
-0.000616074
-0.000651573
-0.000687013
-0.000722316
-0.00075741
-0.000792226
-0.000826691
-0.000860735
-0.000894292
-0.000927298
-0.000959687
-0.000991395
-0.00102237
-0.00105255
-0.00108187
-0.00111028
-0.00113772
-0.00116414
-0.00118948
-0.00121367
-0.00123667
-0.00125843
-0.00127889
-0.001298
-0.00131572
-0.00133199
-0.00134677
-0.00136
-0.00137163
-0.00138163
-0.00138995
-0.00139654
-0.00140135
-0.00140435
-0.00140549
-0.00140472
-0.00140201
-0.00139731
-0.00139059
-0.0013818
-0.0013709
-0.00135787
-0.00134266
-0.00132522
-0.00130553
-0.00128352
-0.00125918
-0.00123245
-0.0012033
-0.0011717
-0.0011376
-0.00110099
-0.00106181
-0.00102003
-0.000975617
-0.000928539
-0.000878757
-0.000826235
-0.000770945
-0.000712858
-0.000651946
-0.000588173
-0.000521508
-0.000451927
-0.000379406
-0.000303926
-0.000225463
-0.000144005
-5.95399e-05
2.79395e-05
0.000118453
0.000212016
0.000308631
0.000408296
0.000511009
0.000616766
0.000725558
0.00083736
0.000952144
0.00106988
0.00119055
0.0013141
0.00144049
0.00156966
0.00170158
0.00183616
0.00197335
0.00211305
0.00225517
0.00239959
0.00254623
0.00269495
0.00284563
0.00299812
0.00315229
0.000146085
0.000148753
0.000149041
0.000147111
0.000143339
0.000137761
0.000130406
0.000121327
0.000110561
9.81514e-05
8.41455e-05
6.85889e-05
5.15275e-05
3.3014e-05
1.3094e-05
-8.18331e-06
-3.07606e-05
-5.45822e-05
-7.95938e-05
-0.000105729
-0.00013292
-0.000161107
-0.000190223
-0.000220196
-0.000250957
-0.000282443
-0.000314575
-0.00034728
-0.000380497
-0.000414143
-0.000448148
-0.000482441
-0.000516951
-0.000551607
-0.000586337
-0.00062107
-0.000655736
-0.000690263
-0.000724581
-0.00075862
-0.00079231
-0.000825585
-0.00085838
-0.000890629
-0.000922269
-0.000953241
-0.000983493
-0.00101296
-0.00104159
-0.00106932
-0.0010961
-0.00112188
-0.00114659
-0.00117019
-0.00119261
-0.00121381
-0.00123374
-0.00125234
-0.00126957
-0.00128538
-0.00129971
-0.00131253
-0.00132378
-0.00133342
-0.0013414
-0.00134769
-0.00135223
-0.00135498
-0.0013559
-0.00135495
-0.00135208
-0.00134726
-0.00134044
-0.00133158
-0.00132065
-0.00130762
-0.00129244
-0.00127506
-0.00125546
-0.00123359
-0.00120941
-0.00118288
-0.00115396
-0.00112262
-0.00108883
-0.00105254
-0.00101373
-0.000972352
-0.000928379
-0.000881777
-0.000832507
-0.000780536
-0.000725837
-0.000668379
-0.000608133
-0.000545062
-0.000479136
-0.000410333
-0.000338627
-0.000263998
-0.000186424
-0.000105895
-2.24001e-05
6.40716e-05
0.000153539
0.000246015
0.000341501
0.000439996
0.000541502
0.000646016
0.000753523
0.000864001
0.000977426
0.00109377
0.001213
0.00133508
0.00145997
0.0015876
0.00171794
0.00185092
0.00198646
0.00212449
0.0022649
0.00240759
0.00255246
0.00269939
0.00284826
0.00299891
0.00315122
0.000177326
0.000178398
0.00017739
0.000174384
0.000169635
0.000163181
0.000155046
0.000145265
0.000133887
0.000120958
0.000106519
9.06085e-05
7.3273e-05
5.45572e-05
3.45055e-05
1.31728e-05
-9.39159e-06
-3.31379e-05
-5.80082e-05
-8.39385e-05
-0.000110871
-0.000138748
-0.000167502
-0.000197067
-0.000227381
-0.000258376
-0.000289984
-0.000322134
-0.000354759
-0.000387793
-0.00042116
-0.000454794
-0.000488627
-0.00052259
-0.000556615
-0.000590633
-0.000624574
-0.000658371
-0.000691958
-0.000725263
-0.00075822
-0.000790768
-0.000822838
-0.000854367
-0.000885297
-0.00091557
-0.000945128
-0.000973913
-0.00100187
-0.00102896
-0.00105511
-0.00108026
-0.00110437
-0.00112739
-0.00114926
-0.00116992
-0.00118933
-0.00120744
-0.0012242
-0.00123955
-0.00125346
-0.00126587
-0.00127675
-0.00128604
-0.0012937
-0.00129969
-0.00130396
-0.00130648
-0.00130719
-0.00130606
-0.00130304
-0.0012981
-0.00129119
-0.00128227
-0.00127132
-0.00125829
-0.00124314
-0.00122583
-0.00120632
-0.00118458
-0.00116057
-0.00113424
-0.00110555
-0.00107448
-0.00104098
-0.00100503
-0.000966587
-0.000925613
-0.000882081
-0.000835954
-0.000787196
-0.000735776
-0.000681667
-0.000624836
-0.000565251
-0.000502879
-0.00043769
-0.00036966
-0.000298765
-0.000224981
-0.000148292
-6.86888e-05
1.38416e-05
9.93135e-05
0.000187743
0.000279139
0.000373505
0.000470843
0.000571157
0.000674439
0.000780676
0.000889848
0.00100193
0.0011169
0.00123472
0.00135535
0.00147875
0.00160487
0.00173366
0.00186505
0.00199898
0.00213536
0.00227409
0.00241508
0.00255823
0.0027034
0.00285049
0.00299935
0.00314984
0.000210966
0.000210349
0.000207959
0.00020379
0.000197977
0.00019056
0.000181559
0.000171009
0.000158953
0.000145428
0.000130476
0.00011414
9.6456e-05
7.74642e-05
5.72133e-05
3.57518e-05
1.31244e-05
-1.06173e-05
-3.54169e-05
-6.12172e-05
-8.79646e-05
-0.000115598
-0.00014406
-0.000173291
-0.000203225
-0.000233797
-0.000264945
-0.000296607
-0.000328707
-0.000361188
-0.000393979
-0.000427013
-0.000460225
-0.000493551
-0.000526922
-0.000560273
-0.000593539
-0.000626653
-0.00065955
-0.000692164
-0.000724433
-0.000756291
-0.000787673
-0.00081852
-0.000848777
-0.000878384
-0.000907282
-0.000935416
-0.00096274
-0.000989199
-0.00101474
-0.0010393
-0.00106283
-0.00108529
-0.00110662
-0.00112676
-0.00114567
-0.0011633
-0.00117961
-0.00119453
-0.00120802
-0.00122005
-0.00123056
-0.00123951
-0.00124686
-0.00125256
-0.00125658
-0.00125886
-0.00125936
-0.00125806
-0.0012549
-0.00124984
-0.00124285
-0.00123388
-0.00122291
-0.00120989
-0.00119477
-0.00117754
-0.00115813
-0.00113653
-0.00111268
-0.00108654
-0.00105809
-0.00102729
-0.000994095
-0.000958477
-0.0009204
-0.000879835
-0.000836745
-0.000791093
-0.000742847
-0.000691978
-0.000638457
-0.000582249
-0.000523321
-0.000461644
-0.000397188
-0.000329929
-0.000259839
-0.000186897
-0.000111089
-3.24072e-05
4.91642e-05
0.000133643
0.000221043
0.000311368
0.000404624
0.000500818
0.000599952
0.000702019
0.000807002
0.000914883
0.00102564
0.00113925
0.00125568
0.00137488
0.00149682
0.00162144
0.0017487
0.00187854
0.00201088
0.00214564
0.00228273
0.00242206
0.00256351
0.00270696
0.00285231
0.00299941
0.00314812
0.000246863
0.00024447
0.000240621
0.000235227
0.000228277
0.000219812
0.000209869
0.000198483
0.000185677
0.000171487
0.000155957
0.00013912
0.000121014
0.00010168
8.11609e-05
5.94979e-05
3.67386e-05
1.29357e-05
-1.18637e-05
-3.76061e-05
-6.42348e-05
-9.16956e-05
-0.000119937
-0.000148897
-0.000178515
-0.000208733
-0.000239489
-0.000270718
-0.000302361
-0.000334349
-0.000366622
-0.000399115
-0.000431762
-0.000464504
-0.000497271
-0.000530004
-0.000562642
-0.000595119
-0.00062737
-0.000659336
-0.000690956
-0.000722163
-0.000752897
-0.000783102
-0.000812721
-0.000841693
-0.000869962
-0.000897482
-0.000924196
-0.000950055
-0.000975005
-0.000998997
-0.00102198
-0.00104389
-0.0010647
-0.00108434
-0.00110277
-0.00111995
-0.00113581
-0.00115031
-0.00116341
-0.00117507
-0.00118523
-0.00119385
-0.00120089
-0.00120631
-0.00121007
-0.00121213
-0.00121244
-0.00121097
-0.00120768
-0.00120251
-0.00119544
-0.00118644
-0.00117545
-0.00116244
-0.00114737
-0.0011302
-0.00111091
-0.00108944
-0.00106575
-0.00103982
-0.0010116
-0.00098107
-0.00094818
-0.000912898
-0.000875195
-0.000835039
-0.000792392
-0.000747216
-0.000699482
-0.000649163
-0.000596227
-0.000540638
-0.000482364
-0.000421378
-0.000357653
-0.00029116
-0.000221871
-0.000149768
-7.48385e-05
2.9269e-06
8.35467e-05
0.00016704
0.000253415
0.000342679
0.000434838
0.0005299
0.000627869
0.000728734
0.000832478
0.000939087
0.00104854
0.00116081
0.00127586
0.00139365
0.00151415
0.0016373
0.00176306
0.00189137
0.00202215
0.00215532
0.0022908
0.00242849
0.00256828
0.00271005
0.00285369
0.00299907
0.00314604
0.000284894
0.000280643
0.00027526
0.000268575
0.000260423
0.000250851
0.000239903
0.000227603
0.00021398
0.000199064
0.000182885
0.00016548
0.00014689
0.000127146
0.000106287
8.43563e-05
6.14035e-05
3.74702e-05
1.26025e-05
-1.31461e-05
-3.97238e-05
-6.70808e-05
-9.51654e-05
-0.00012392
-0.000153288
-0.000183212
-0.000213638
-0.000244498
-0.000275739
-0.000307296
-0.000339108
-0.000371114
-0.000403253
-0.000435459
-0.000467676
-0.000499842
-0.000531897
-0.00056378
-0.000595431
-0.000626792
-0.0006578
-0.000688396
-0.000718521
-0.00074812
-0.000777132
-0.000805503
-0.00083318
-0.000860113
-0.000886248
-0.000911535
-0.000935926
-0.000959372
-0.000981819
-0.00100322
-0.00102352
-0.00104268
-0.00106065
-0.00107738
-0.00109282
-0.00110692
-0.00111964
-0.00113094
-0.00114075
-0.00114906
-0.00115581
-0.00116096
-0.00116448
-0.00116632
-0.00116644
-0.00116481
-0.00116139
-0.00115613
-0.00114899
-0.00113994
-0.00112895
-0.00111595
-0.00110093
-0.00108385
-0.00106466