/*--------------------------------*- C++ -*----------------------------------*\
| =========                 |                                                 |
| \\      /  F ield         | OpenFOAM: The Open Source CFD Toolbox           |
|  \\    /   O peration     | Version:  2112                                  |
|   \\  /    A nd           | Website:  www.openfoam.com                      |
|    \\/     M anipulation  |                                                 |
\*---------------------------------------------------------------------------*/
FoamFile
{
    version     2.0;
    format      ascii;
    arch        "LSB;label=32;scalar=64";
    class       surfaceScalarField;
    location    "5.92";
    object      phi;
}
// * * * * * * * * * * * * * * * * * * * * * * * * * * * * * * * * * * * * * //

dimensions      [0 3 -1 0 0 0 0];

oriented        oriented;

internalField   nonuniform List<scalar> 
132612
(
-2.47485e-11
2.47571e-11
3.96997e-11
-6.44936e-11
2.13374e-10
-1.73679e-10
4.71602e-10
-2.58376e-10
7.91385e-10
-3.19703e-10
1.151e-09
-3.59602e-10
1.53178e-09
-3.80745e-10
1.918e-09
-3.86236e-10
2.29647e-09
-3.78516e-10
2.65603e-09
-3.5959e-10
2.98747e-09
-3.31338e-10
3.28273e-09
-2.95224e-10
3.53515e-09
-2.52318e-10
3.73888e-09
-2.03732e-10
3.88906e-09
-1.50198e-10
3.98149e-09
-9.24406e-11
4.0124e-09
-3.09723e-11
3.97888e-09
3.35418e-11
3.87826e-09
1.00546e-10
3.70834e-09
1.69914e-10
3.46719e-09
2.41153e-10
3.15325e-09
3.13863e-10
2.76541e-09
3.87847e-10
2.30259e-09
4.62799e-10
1.76392e-09
5.38642e-10
1.14882e-09
6.1513e-10
4.56765e-10
6.92038e-10
-3.1242e-10
7.69203e-10
-1.15877e-09
8.46383e-10
-2.08229e-09
9.23508e-10
-3.08267e-09
1.00046e-09
-4.15986e-09
1.0772e-09
-5.31341e-09
1.15353e-09
-6.54281e-09
1.22945e-09
-7.84763e-09
1.30481e-09
-9.22719e-09
1.37954e-09
-1.06807e-08
1.45356e-09
-1.22074e-08
1.5267e-09
-1.38063e-08
1.59901e-09
-1.54767e-08
1.67044e-09
-1.72175e-08
1.7408e-09
-1.90278e-08
1.81023e-09
-2.09063e-08
1.87865e-09
-2.28522e-08
1.94583e-09
-2.48641e-08
2.01192e-09
-2.6941e-08
2.07693e-09
-2.90818e-08
2.14065e-09
-3.12849e-08
2.2031e-09
-3.35493e-08
2.26431e-09
-3.58736e-08
2.32426e-09
-3.82564e-08
2.38281e-09
-4.06964e-08
2.43994e-09
-4.31922e-08
2.49587e-09
-4.57426e-08
2.55039e-09
-4.8346e-08
2.60343e-09
-5.10011e-08
2.65508e-09
-5.37063e-08
2.70532e-09
-5.64604e-08
2.75403e-09
-5.92616e-08
2.80129e-09
-6.21086e-08
2.84703e-09
-6.49999e-08
2.89125e-09
-6.79338e-08
2.93402e-09
-7.09089e-08
2.97515e-09
-7.39236e-08
3.01466e-09
-7.69764e-08
3.05282e-09
-8.00659e-08
3.08942e-09
-8.31901e-08
3.12419e-09
-8.63475e-08
3.15743e-09
-8.95367e-08
3.18918e-09
-9.27559e-08
3.21915e-09
-9.60033e-08
3.24745e-09
-9.92774e-08
3.2741e-09
-1.02576e-07
3.29898e-09
-1.05898e-07
3.32215e-09
-1.09242e-07
3.34352e-09
-1.12605e-07
3.36319e-09
-1.15986e-07
3.38095e-09
-1.19383e-07
3.39683e-09
-1.22794e-07
3.41085e-09
-1.26217e-07
3.42294e-09
-1.2965e-07
3.4331e-09
-1.33091e-07
3.44119e-09
-1.36538e-07
3.44714e-09
-1.39989e-07
3.45106e-09
-1.43442e-07
3.45282e-09
-1.46894e-07
3.45226e-09
-1.50344e-07
3.44947e-09
-1.53788e-07
3.4444e-09
-1.57225e-07
3.4369e-09
-1.60652e-07
3.42693e-09
-1.64067e-07
3.4144e-09
-1.67466e-07
3.39929e-09
-1.70847e-07
3.38156e-09
-1.74208e-07
3.36095e-09
-1.77546e-07
3.33742e-09
-1.80857e-07
3.31103e-09
-1.84138e-07
3.28162e-09
-1.87387e-07
3.24898e-09
-1.906e-07
3.21313e-09
-1.93774e-07
3.17401e-09
-1.96906e-07
3.13145e-09
-1.99991e-07
3.08532e-09
-2.03027e-07
3.03558e-09
-2.06009e-07
2.9822e-09
-2.08934e-07
2.92488e-09
-2.11797e-07
2.86363e-09
-2.14596e-07
2.79836e-09
-2.17325e-07
2.72894e-09
-2.1998e-07
2.6553e-09
-2.22557e-07
2.57723e-09
-2.25052e-07
2.49475e-09
-2.2746e-07
2.4077e-09
-2.29776e-07
2.31598e-09
-2.31995e-07
2.21956e-09
-2.34114e-07
2.11831e-09
-2.36126e-07
2.01226e-09
-2.38027e-07
1.90114e-09
-2.39812e-07
1.78508e-09
-2.41476e-07
1.6639e-09
-2.43013e-07
1.5375e-09
-2.44419e-07
1.40588e-09
-2.45688e-07
1.26913e-09
-2.46815e-07
1.1272e-09
-2.47796e-07
9.80256e-10
-2.48624e-07
8.27916e-10
-2.49294e-07
6.70385e-10
-2.49802e-07
5.07925e-10
-2.50142e-07
3.40282e-10
1.68001e-10
-2.5031e-07
7.17277e-11
-4.69974e-11
3.46398e-10
-3.39112e-10
8.31189e-10
-6.58583e-10
1.49688e-09
-9.23835e-10
2.29922e-09
-1.12236e-09
3.19429e-09
-1.25461e-09
4.13944e-09
-1.32593e-09
5.09642e-09
-1.34325e-09
6.03144e-09
-1.31345e-09
6.91486e-09
-1.24301e-09
7.72069e-09
-1.13742e-09
8.42691e-09
-1.00146e-09
9.01389e-09
-8.39399e-10
9.46481e-09
-6.54658e-10
9.76516e-09
-4.50532e-10
9.90219e-09
-2.29459e-10
9.86509e-09
6.20375e-12
9.64423e-09
2.543e-10
9.23166e-09
5.13242e-10
8.6204e-09
7.81224e-10
7.80442e-09
1.05711e-09
6.77887e-09
1.33954e-09
5.53945e-09
1.62728e-09
4.08282e-09
1.9195e-09
2.4062e-09
2.21529e-09
5.07423e-10
2.51388e-09
-1.61506e-09
2.81454e-09
-3.96235e-09
3.1165e-09
-6.53514e-09
3.41907e-09
-9.3336e-09
3.72189e-09
-1.23574e-08
4.02432e-09
-1.56063e-08
4.32598e-09
-1.90793e-08
4.62652e-09
-2.27752e-08
4.92538e-09
-2.66927e-08
5.22227e-09
-3.08301e-08
5.51698e-09
-3.51854e-08
5.8089e-09
-3.97567e-08
6.09785e-09
-4.45414e-08
6.38378e-09
-4.95371e-08
6.66614e-09
-5.47412e-08
6.94476e-09
-6.01507e-08
7.21973e-09
-6.57626e-08
7.49059e-09
-7.15739e-08
7.7571e-09
-7.75812e-08
8.01934e-09
-8.37812e-08
8.27706e-09
-9.01705e-08
8.52998e-09
-9.67453e-08
8.77805e-09
-1.03502e-07
9.0212e-09
-1.10437e-07
9.2593e-09
-1.17546e-07
9.49215e-09
-1.24826e-07
9.71973e-09
-1.32272e-07
9.94202e-09
-1.39881e-07
1.01588e-08
-1.47647e-07
1.03701e-08
-1.55568e-07
1.05758e-08
-1.63638e-07
1.07757e-08
-1.71854e-07
1.09698e-08
-1.80211e-07
1.11582e-08
-1.88705e-07
1.13405e-08
-1.9733e-07
1.15169e-08
-2.06084e-07
1.16873e-08
-2.1496e-07
1.18516e-08
-2.23955e-07
1.20096e-08
-2.33064e-07
1.21616e-08
-2.42282e-07
1.23074e-08
-2.51604e-07
1.24465e-08
-2.61026e-07
1.25793e-08
-2.70543e-07
1.27057e-08
-2.80149e-07
1.28254e-08
-2.8984e-07
1.29384e-08
-2.9961e-07
1.30447e-08
-3.09456e-07
1.3144e-08
-3.1937e-07
1.32365e-08
-3.29348e-07
1.33218e-08
-3.39385e-07
1.34001e-08
-3.49475e-07
1.34711e-08
-3.59613e-07
1.35344e-08
-3.69792e-07
1.35902e-08
-3.80008e-07
1.36383e-08
-3.90253e-07
1.36784e-08
-4.00522e-07
1.37104e-08
-4.10809e-07
1.37341e-08
-4.21108e-07
1.37494e-08
-4.31411e-07
1.3756e-08
-4.41712e-07
1.37536e-08
-4.52005e-07
1.37421e-08
-4.62282e-07
1.37213e-08
-4.72535e-07
1.36909e-08
-4.82759e-07
1.36505e-08
-4.92945e-07
1.36e-08
-5.03084e-07
1.3539e-08
-5.1317e-07
1.34674e-08
-5.23194e-07
1.33845e-08
-5.33146e-07
1.32901e-08
-5.43019e-07
1.3184e-08
-5.52803e-07
1.30657e-08
-5.62489e-07
1.29348e-08
-5.72067e-07
1.2791e-08
-5.81527e-07
1.26341e-08
-5.90859e-07
1.24635e-08
-6.00053e-07
1.22788e-08
-6.09097e-07
1.20796e-08
-6.17981e-07
1.18656e-08
-6.26692e-07
1.16363e-08
-6.3522e-07
1.13912e-08
-6.43551e-07
1.11301e-08
-6.51675e-07
1.08524e-08
-6.59577e-07
1.05579e-08
-6.67246e-07
1.0246e-08
-6.74668e-07
9.91644e-09
-6.81829e-07
9.56868e-09
-6.88715e-07
9.20244e-09
-6.95313e-07
8.81752e-09
-7.01608e-07
8.41337e-09
-7.07586e-07
7.98988e-09
-7.13232e-07
7.54655e-09
-7.1853e-07
7.08348e-09
-7.23466e-07
6.60024e-09
-7.28026e-07
6.09657e-09
-7.32192e-07
5.57233e-09
-7.3595e-07
5.02754e-09
-7.39285e-07
4.4621e-09
-7.42181e-07
3.87637e-09
-7.44623e-07
3.26993e-09
-7.46596e-07
2.64308e-09
-7.48084e-07
1.99632e-09
-7.49073e-07
1.32928e-09
6.43157e-10
-7.49549e-07
1.72665e-10
-2.19649e-10
6.59886e-10
-8.26404e-10
1.42687e-09
-1.42557e-09
2.42822e-09
-1.92523e-09
3.6081e-09
-2.30217e-09
4.90751e-09
-2.55396e-09
6.26887e-09
-2.68729e-09
7.63822e-09
-2.7126e-09
8.9665e-09
-2.64163e-09
1.02093e-08
-2.48582e-09
1.13276e-08
-2.25551e-09
1.22863e-08
-1.96018e-09
1.30549e-08
-1.60801e-09
1.36065e-08
-1.20629e-09
1.39173e-08
-7.61404e-10
1.39668e-08
-2.7889e-10
1.37367e-08
2.36138e-10
1.32115e-08
7.79572e-10
1.23773e-08
1.3474e-09
1.12223e-08
1.93617e-09
9.73637e-09
2.543e-09
7.91094e-09
3.16496e-09
5.73861e-09
3.79958e-09
3.21336e-09
4.44479e-09
3.30156e-10
5.09848e-09
-2.91493e-09
5.75895e-09
-6.52489e-09
6.42459e-09
-1.0502e-08
7.09362e-09
-1.48477e-08
7.76477e-09
-1.95626e-08
8.43686e-09
-2.4647e-08
9.10865e-09
-3.01001e-08
9.77915e-09
-3.59211e-08
1.04475e-08
-4.21082e-08
1.11125e-08
-4.86596e-08
1.17737e-08
-5.55726e-08
1.243e-08
-6.28445e-08
1.30807e-08
-7.04719e-08
1.37254e-08
-7.84513e-08
1.43632e-08
-8.67788e-08
1.49936e-08
-9.545e-08
1.56161e-08
-1.04461e-07
1.62302e-08
-1.13806e-07
1.68356e-08
-1.2348e-07
1.74317e-08
-1.33479e-07
1.80183e-08
-1.43797e-07
1.85949e-08
-1.54428e-07
1.91611e-08
-1.65367e-07
1.97167e-08
-1.76607e-07
2.02613e-08
-1.88143e-07
2.07948e-08
-1.99967e-07
2.13169e-08
-2.12075e-07
2.18272e-08
-2.24458e-07
2.23257e-08
-2.37112e-07
2.28121e-08
-2.50028e-07
2.32862e-08
-2.632e-07
2.37477e-08
-2.7662e-07
2.41965e-08
-2.90283e-07
2.46324e-08
-3.0418e-07
2.50553e-08
-3.18304e-07
2.5465e-08
-3.32649e-07
2.58612e-08
-3.47206e-07
2.62441e-08
-3.61967e-07
2.66133e-08
-3.76926e-07
2.69686e-08
-3.92075e-07
2.73101e-08
-4.07405e-07
2.76376e-08
-4.22909e-07
2.79506e-08
-4.38579e-07
2.82491e-08
-4.54406e-07
2.85332e-08
-4.70383e-07
2.88024e-08
-4.86501e-07
2.90565e-08
-5.02752e-07
2.92955e-08
-5.19127e-07
2.95189e-08
-5.35617e-07
2.97267e-08
-5.52214e-07
2.99186e-08
-5.68908e-07
3.00943e-08
-5.85691e-07
3.02535e-08
-6.02552e-07
3.03958e-08
-6.19483e-07
3.0521e-08
-6.36473e-07
3.06287e-08
-6.53513e-07
3.07184e-08
-6.70593e-07
3.079e-08
-6.87701e-07
3.08428e-08
-7.04829e-07
3.08766e-08
-7.21964e-07
3.08908e-08
-7.39095e-07
3.08848e-08
-7.56211e-07
3.08584e-08
-7.733e-07
3.08108e-08
-7.90351e-07
3.07414e-08
-8.0735e-07
3.06498e-08
-8.24285e-07
3.05352e-08
-8.41143e-07
3.03971e-08
-8.57911e-07
3.02347e-08
-8.74573e-07
3.00472e-08
-8.91117e-07
2.98337e-08
-9.07527e-07
2.95939e-08
-9.23788e-07
2.93267e-08
-9.39884e-07
2.90312e-08
-9.558e-07
2.87067e-08
-9.71518e-07
2.83525e-08
-9.87023e-07
2.79676e-08
-1.00229e-06
2.7551e-08
-1.01732e-06
2.71018e-08
-1.03207e-06
2.66193e-08
-1.04654e-06
2.61025e-08
-1.0607e-06
2.55504e-08
-1.07453e-06
2.49621e-08
-1.08801e-06
2.43367e-08
-1.10113e-06
2.36735e-08
-1.11385e-06
2.29714e-08
-1.12617e-06
2.22296e-08
-1.13805e-06
2.14472e-08
-1.14947e-06
2.06234e-08
-1.16041e-06
1.97576e-08
-1.17084e-06
1.88488e-08
-1.18075e-06
1.78967e-08
-1.1901e-06
1.69002e-08
-1.19888e-06
1.58592e-08
-1.20705e-06
1.47731e-08
-1.2146e-06
1.36415e-08
-1.22149e-06
1.24641e-08
-1.2277e-06
1.12407e-08
-1.23321e-06
9.97115e-09
-1.23799e-06
8.65589e-09
-1.24201e-06
7.29468e-09
-1.24526e-06
5.88783e-09
-1.2477e-06
4.43634e-09
-1.24931e-06
2.93989e-09
1.40027e-09
-1.25007e-06
2.57162e-10
-4.76781e-10
9.22821e-10
-1.49207e-09
1.92402e-09
-2.42679e-09
3.19357e-09
-3.19478e-09
4.66119e-09
-3.76984e-09
6.25647e-09
-4.14929e-09
7.91041e-09
-4.3413e-09
9.55795e-09
-4.36012e-09
1.11383e-08
-4.22213e-09
1.25963e-08
-3.94374e-09
1.38815e-08
-3.54075e-09
1.49489e-08
-3.02755e-09
1.57582e-08
-2.41726e-09
1.62734e-08
-1.72156e-09
1.64628e-08
-9.50773e-10
1.62983e-08
-1.14364e-10
1.57548e-08
7.79527e-10
1.48108e-08
1.72366e-09
1.3447e-08
2.71117e-09
1.16469e-08
3.7364e-09
9.39584e-09
4.79403e-09
6.68159e-09
5.87921e-09
3.49345e-09
6.98775e-09
-1.77405e-10
8.11563e-09
-4.33831e-09
9.25939e-09
-8.99526e-09
1.04159e-08
-1.4153e-08
1.15822e-08
-1.98149e-08
1.27556e-08
-2.59837e-08
1.39336e-08
-3.26608e-08
1.51139e-08
-3.98466e-08
1.62945e-08
-4.7541e-08
1.74736e-08
-5.57429e-08
1.86493e-08
-6.44504e-08
1.982e-08
-7.36611e-08
2.09844e-08
-8.3372e-08
2.21409e-08
-9.35793e-08
2.32881e-08
-1.04279e-07
2.44251e-08
-1.15466e-07
2.55505e-08
-1.27136e-07
2.66634e-08
-1.39283e-07
2.77629e-08
-1.51901e-07
2.88479e-08
-1.64983e-07
2.99179e-08
-1.78523e-07
3.09718e-08
-1.92514e-07
3.20092e-08
-2.06948e-07
3.30292e-08
-2.21818e-07
3.40313e-08
-2.37117e-07
3.50149e-08
-2.52835e-07
3.59794e-08
-2.68964e-07
3.69244e-08
-2.85497e-07
3.78494e-08
-3.02423e-07
3.87539e-08
-3.19735e-07
3.96375e-08
-3.37423e-07
4.04999e-08
-3.55478e-07
4.13407e-08
-3.73889e-07
4.21594e-08
-3.92649e-07
4.29557e-08
-4.11746e-07
4.37293e-08
-4.3117e-07
4.448e-08
-4.50913e-07
4.52073e-08
-4.70962e-07
4.59109e-08
-4.91309e-07
4.65907e-08
-5.11942e-07
4.72465e-08
-5.32851e-07
4.78778e-08
-5.54025e-07
4.84842e-08
-5.75454e-07
4.90659e-08
-5.97125e-07
4.96221e-08
-6.19029e-07
5.01526e-08
-6.41153e-07
5.06572e-08
-6.63486e-07
5.11355e-08
-6.86016e-07
5.15871e-08
-7.08733e-07
5.20116e-08
-7.31622e-07
5.24086e-08
-7.54673e-07
5.27777e-08
-7.77873e-07
5.31185e-08
-8.01209e-07
5.34305e-08
-8.24669e-07
5.3713e-08
-8.48239e-07
5.39654e-08
-8.71905e-07
5.41874e-08
-8.95654e-07
5.43782e-08
-9.19473e-07
5.45371e-08
-9.43347e-07
5.46635e-08
-9.6726e-07
5.47566e-08
-9.91199e-07
5.48157e-08
-1.01515e-06
5.48398e-08
-1.03909e-06
5.48281e-08
-1.06301e-06
5.47799e-08
-1.0869e-06
5.46939e-08
-1.11072e-06
5.45692e-08
-1.13448e-06
5.44048e-08
-1.15814e-06
5.41996e-08
-1.1817e-06
5.39524e-08
-1.20513e-06
5.36618e-08
-1.22841e-06
5.33266e-08
-1.25152e-06
5.29454e-08
-1.27444e-06
5.25171e-08
-1.29715e-06
5.20401e-08
-1.31964e-06
5.15129e-08
-1.34186e-06
5.09342e-08
-1.36381e-06
5.03025e-08
-1.38546e-06
4.96162e-08
-1.40678e-06
4.88737e-08
-1.42776e-06
4.80733e-08
-1.44835e-06
4.72137e-08
-1.46854e-06
4.62931e-08
-1.4883e-06
4.531e-08
-1.5076e-06
4.42627e-08
-1.52641e-06
4.31495e-08
-1.54471e-06
4.19693e-08
-1.56246e-06
4.07201e-08
-1.57963e-06
3.94004e-08
-1.59619e-06
3.80089e-08
-1.61211e-06
3.6544e-08
-1.62736e-06
3.50048e-08
-1.6419e-06
3.33894e-08
-1.6557e-06
3.16972e-08
-1.66873e-06
2.99267e-08
-1.68094e-06
2.80773e-08
-1.69232e-06
2.61481e-08
-1.70282e-06
2.41382e-08
-1.7124e-06
2.20475e-08
-1.72103e-06
1.98756e-08
-1.72869e-06
1.76221e-08
-1.73532e-06
1.52876e-08
-1.74089e-06
1.2872e-08
-1.74538e-06
1.03758e-08
-1.74875e-06
7.80051e-09
-1.75095e-06
5.14613e-09
2.41498e-09
-1.75197e-06
3.18178e-10
-7.95044e-10
1.12073e-09
-2.29466e-09
2.30065e-09
-3.6067e-09
3.76845e-09
-4.66251e-09
5.43966e-09
-5.44107e-09
7.23283e-09
-5.94239e-09
9.0699e-09
-6.17822e-09
1.08766e-08
-6.16677e-09
1.25835e-08
-5.92907e-09
1.41266e-08
-5.4868e-09
1.54467e-08
-4.86097e-09
1.64906e-08
-4.07137e-09
1.72095e-08
-3.13624e-09
1.756e-08
-2.07199e-09
1.7503e-08
-8.93734e-10
1.70034e-08
3.85174e-10
1.60304e-08
1.7526e-09
1.45565e-08
3.19758e-09
1.25572e-08
4.71048e-09
1.00113e-08
6.28232e-09
6.90022e-09
7.90509e-09
3.20783e-09
9.57167e-09
-1.07989e-09
1.12754e-08
-5.97468e-09
1.30104e-08
-1.14864e-08
1.47712e-08
-1.76232e-08
1.65527e-08
-2.43917e-08
1.83506e-08
-3.17967e-08
2.01606e-08
-3.9842e-08
2.19789e-08
-4.85301e-08
2.3802e-08
-5.78621e-08
2.56266e-08
-6.78383e-08
2.74497e-08
-7.84577e-08
2.92687e-08
-8.97185e-08
3.10809e-08
-1.01618e-07
3.2884e-08
-1.14153e-07
3.46757e-08
-1.27319e-07
3.64541e-08
-1.41111e-07
3.82171e-08
-1.55524e-07
3.9963e-08
-1.7055e-07
4.16903e-08
-1.86185e-07
4.33973e-08
-2.0242e-07
4.50826e-08
-2.19247e-07
4.6745e-08
-2.36658e-07
4.83832e-08
-2.54645e-07
4.9996e-08
-2.73198e-07
5.15824e-08
-2.92308e-07
5.31414e-08
-3.11965e-07
5.4672e-08
-3.32159e-07
5.61734e-08
-3.5288e-07
5.76448e-08
-3.74116e-07
5.90854e-08
-3.95856e-07
6.04945e-08
-4.1809e-07
6.18714e-08
-4.40805e-07
6.32154e-08
-4.63991e-07
6.4526e-08
-4.87634e-07
6.58025e-08
-5.11722e-07
6.70444e-08
-5.36244e-07
6.8251e-08
-5.61186e-07
6.9422e-08
-5.86536e-07
7.05569e-08
-6.1228e-07
7.1655e-08
-6.38405e-07
7.2716e-08
-6.64898e-07
7.37396e-08
-6.91746e-07
7.47252e-08
-7.18934e-07
7.56721e-08
-7.46448e-07
7.65802e-08
-7.74274e-07
7.74487e-08
-8.02399e-07
7.82772e-08
-8.30807e-07
7.90651e-08
-8.59483e-07
7.9812e-08
-8.88413e-07
8.05171e-08
-9.17582e-07
8.118e-08
-9.46973e-07
8.17999e-08
-9.76571e-07
8.23762e-08
-1.00636e-06
8.29081e-08
-1.03633e-06
8.33948e-08
-1.06645e-06
8.38354e-08
-1.09671e-06
8.42291e-08
-1.1271e-06
8.45751e-08
-1.15759e-06
8.48721e-08
-1.18818e-06
8.51193e-08
-1.21883e-06
8.53156e-08
-1.24953e-06
8.54598e-08
-1.28027e-06
8.55505e-08
-1.31101e-06
8.55867e-08
-1.34175e-06
8.55668e-08
-1.37246e-06
8.54894e-08
-1.40312e-06
8.53531e-08
-1.43371e-06
8.51561e-08
-1.4642e-06
8.48969e-08
-1.49457e-06
8.45738e-08
-1.52481e-06
8.41849e-08
-1.55487e-06
8.37281e-08
-1.58475e-06
8.32017e-08
-1.6144e-06
8.26033e-08
-1.64382e-06
8.1931e-08
-1.67296e-06
8.11827e-08
-1.7018e-06
8.0356e-08
-1.73032e-06
7.94486e-08
-1.75847e-06
7.84585e-08
-1.78624e-06
7.73831e-08
-1.81359e-06
7.62199e-08
-1.84048e-06
7.49663e-08
-1.86689e-06
7.36203e-08
-1.89277e-06
7.21791e-08
-1.9181e-06
7.06402e-08
-1.94284e-06
6.90013e-08
-1.96695e-06
6.72599e-08
-1.9904e-06
6.54136e-08
-2.01314e-06
6.346e-08
-2.03513e-06
6.13964e-08
-2.05635e-06
5.9221e-08
-2.07673e-06
5.69314e-08
-2.09625e-06
5.45257e-08
-2.11487e-06
5.20017e-08
-2.13253e-06
4.93579e-08
-2.14919e-06
4.65926e-08
-2.16482e-06
4.37043e-08
-2.17936e-06
4.06918e-08
-2.19278e-06
3.7554e-08
-2.20502e-06
3.42904e-08
-2.21605e-06
3.09006e-08
-2.22581e-06
2.73841e-08
-2.23426e-06
2.37414e-08
-2.24136e-06
1.9973e-08
-2.24707e-06
1.60793e-08
-2.25133e-06
1.20626e-08
-2.25411e-06
7.92326e-09
3.66432e-09
-2.25536e-06
3.58468e-10
-1.15341e-09
1.25378e-09
-3.19007e-09
2.554e-09
-4.90688e-09
4.15024e-09
-6.25872e-09
5.94418e-09
-7.23513e-09
7.84436e-09
-7.8425e-09
9.76404e-09
-8.09798e-09
1.16219e-08
-8.02457e-09
1.33413e-08
-7.64842e-09
1.4851e-08
-6.99643e-09
1.60851e-08
-6.09504e-09
1.6983e-08
-4.96934e-09
1.74895e-08
-3.6427e-09
1.75544e-08
-2.13694e-09
1.71323e-08
-4.71651e-10
1.61823e-08
1.33518e-09
1.46677e-08
3.26713e-09
1.25558e-08
5.3095e-09
9.8175e-09
7.44882e-09
6.42701e-09
9.6728e-09
2.36163e-09
1.19705e-08
-2.39831e-09
1.43317e-08
-7.87004e-09
1.67471e-08
-1.40683e-08
1.92087e-08
-2.10055e-08
2.17084e-08
-2.86921e-08
2.42393e-08
-3.71364e-08
2.6795e-08
-4.63453e-08
2.93694e-08
-5.63235e-08
3.19571e-08
-6.70747e-08
3.45532e-08
-7.8601e-08
3.71528e-08
-9.09029e-08
3.97517e-08
-1.0398e-07
4.23459e-08
-1.17831e-07
4.49317e-08
-1.32453e-07
4.75056e-08
-1.47841e-07
5.00646e-08
-1.63993e-07
5.26054e-08
-1.80901e-07
5.51255e-08
-1.9856e-07
5.76221e-08
-2.16963e-07
6.00929e-08
-2.36101e-07
6.25356e-08
-2.55967e-07
6.49482e-08
-2.7655e-07
6.73288e-08
-2.97843e-07
6.96754e-08
-3.19833e-07
7.19865e-08
-3.42511e-07
7.42604e-08
-3.65865e-07
7.64956e-08
-3.89884e-07
7.86908e-08
-4.14555e-07
8.08447e-08
-4.39867e-07
8.2956e-08
-4.65805e-07
8.50237e-08
-4.92357e-07
8.70466e-08
-5.1951e-07
8.90238e-08
-5.47249e-07
9.09543e-08
-5.7556e-07
9.2837e-08
-6.04428e-07
9.46712e-08
-6.3384e-07
9.6456e-08
-6.63779e-07
9.81905e-08
-6.94231e-07
9.98739e-08
-7.2518e-07
1.01506e-07
-7.5661e-07
1.03085e-07
-7.88505e-07
1.04611e-07
-8.20849e-07
1.06083e-07
-8.53625e-07
1.07501e-07
-8.86817e-07
1.08864e-07
-9.20407e-07
1.1017e-07
-9.54378e-07
1.1142e-07
-9.88713e-07
1.12612e-07
-1.02339e-06
1.13746e-07
-1.0584e-06
1.14821e-07
-1.09372e-06
1.15835e-07
-1.12933e-06
1.16789e-07
-1.16521e-06
1.17681e-07
-1.20135e-06
1.1851e-07
-1.23771e-06
1.19275e-07
-1.27429e-06
1.19975e-07
-1.31107e-06
1.20608e-07
-1.34801e-06
1.21174e-07
-1.38511e-06
1.21671e-07
-1.42233e-06
1.22097e-07
-1.45966e-06
1.22451e-07
-1.49708e-06
1.22732e-07
-1.53456e-06
1.22938e-07
-1.57207e-06
1.23067e-07
-1.6096e-06
1.23116e-07
-1.64712e-06
1.23085e-07
-1.6846e-06
1.22971e-07
-1.72202e-06
1.22772e-07
-1.75935e-06
1.22485e-07
-1.79656e-06
1.22108e-07
-1.83363e-06
1.2164e-07
-1.87052e-06
1.21076e-07
-1.90721e-06
1.20414e-07
-1.94366e-06
1.19652e-07
-1.97984e-06
1.18786e-07
-2.01572e-06
1.17814e-07
-2.05127e-06
1.16732e-07
-2.08645e-06
1.15537e-07
-2.12123e-06
1.14227e-07
-2.15557e-06
1.12796e-07
-2.18943e-06
1.11243e-07
-2.22277e-06
1.09564e-07
-2.25556e-06
1.07755e-07
-2.28775e-06
1.05812e-07
-2.31931e-06
1.03733e-07
-2.35018e-06
1.01513e-07
-2.38033e-06
9.91491e-08
-2.40971e-06
9.66381e-08
-2.43827e-06
9.39763e-08
-2.46597e-06
9.11602e-08
-2.49276e-06
8.81865e-08
-2.51859e-06
8.5052e-08
-2.54341e-06
8.17536e-08
-2.56717e-06
7.82884e-08
-2.58983e-06
7.46535e-08
-2.61132e-06
7.08467e-08
-2.63159e-06
6.68656e-08
-2.65059e-06
6.27081e-08
-2.66827e-06
5.83725e-08
-2.68458e-06
5.38573e-08
-2.69945e-06
4.91618e-08
-2.71283e-06
4.42854e-08
-2.72468e-06
3.92276e-08
-2.73492e-06
3.39889e-08
-2.74352e-06
2.85702e-08
-2.75041e-06
2.2972e-08
-2.75555e-06
1.71975e-08
-2.75887e-06
1.12477e-08
5.12641e-09
-2.76033e-06
3.80254e-10
-1.53369e-09
1.32698e-09
-4.13672e-09
2.69057e-09
-6.2705e-09
4.3472e-09
-7.91533e-09
6.18672e-09
-9.0745e-09
8.108e-09
-9.76387e-09
1.00173e-08
-1.00073e-08
1.18266e-08
-9.83387e-09
1.34534e-08
-9.27512e-09
1.48205e-08
-8.36349e-09
1.58562e-08
-7.13084e-09
1.64945e-08
-5.60753e-09
1.66743e-08
-3.82248e-09
1.63397e-08
-1.80238e-09
1.544e-08
4.28134e-10
1.39289e-08
2.84622e-09
1.17649e-08
5.43115e-09
8.91049e-09
8.16396e-09
5.33204e-09
1.10273e-08
9.9969e-10
1.40052e-08
-4.11309e-09
1.70832e-08
-1.00295e-08
2.02481e-08
-1.677e-08
2.34876e-08
-2.43519e-08
2.67907e-08
-3.27906e-08
3.0147e-08
-4.20984e-08
3.35471e-08
-5.22859e-08
3.69825e-08
-6.33614e-08
4.04449e-08
-7.53315e-08
4.39272e-08
-8.82007e-08
4.74224e-08
-1.01972e-07
5.09242e-08
-1.16647e-07
5.44267e-08
-1.32226e-07
5.79246e-08
-1.48707e-07
6.14126e-08
-1.66087e-07
6.48862e-08
-1.84363e-07
6.83409e-08
-2.03531e-07
7.17727e-08
-2.23583e-07
7.51778e-08
-2.44513e-07
7.85524e-08
-2.66314e-07
8.18934e-08
-2.88976e-07
8.51976e-08
-3.1249e-07
8.84622e-08
-3.36845e-07
9.16844e-08
-3.62032e-07
9.48617e-08
-3.88037e-07
9.79919e-08
-4.14849e-07
1.01073e-07
-4.42455e-07
1.04102e-07
-4.70842e-07
1.07077e-07
-4.99995e-07
1.09998e-07
-5.29901e-07
1.12862e-07
-5.60544e-07
1.15667e-07
-5.91909e-07
1.18412e-07
-6.2398e-07
1.21095e-07
-6.56741e-07
1.23715e-07
-6.90176e-07
1.26272e-07
-7.24267e-07
1.28763e-07
-7.58998e-07
1.31187e-07
-7.94351e-07
1.33543e-07
-8.30308e-07
1.35831e-07
-8.66851e-07
1.38048e-07
-9.03961e-07
1.40195e-07
-9.41619e-07
1.42269e-07
-9.79806e-07
1.44271e-07
-1.0185e-06
1.46199e-07
-1.05769e-06
1.48051e-07
-1.09735e-06
1.49828e-07
-1.13746e-06
1.51527e-07
-1.17799e-06
1.53149e-07
-1.21894e-06
1.54691e-07
-1.26027e-06
1.56152e-07
-1.30197e-06
1.57532e-07
-1.34401e-06
1.58829e-07
-1.38637e-06
1.60042e-07
-1.42903e-06
1.61169e-07
-1.47196e-06
1.62209e-07
-1.51515e-06
1.6316e-07
-1.55856e-06
1.64021e-07
-1.60217e-06
1.64789e-07
-1.64597e-06
1.65463e-07
-1.68991e-06
1.66041e-07
-1.73398e-06
1.66521e-07
-1.77815e-06
1.66901e-07
-1.82239e-06
1.67178e-07
-1.86667e-06
1.6735e-07
-1.91097e-06
1.67415e-07
-1.95526e-06
1.67369e-07
-1.99949e-06
1.6721e-07
-2.04366e-06
1.66935e-07
-2.08771e-06
1.6654e-07
-2.13163e-06
1.66023e-07
-2.17537e-06
1.6538e-07
-2.2189e-06
1.64608e-07
-2.26219e-06
1.63702e-07
-2.30519e-06
1.62659e-07
-2.34788e-06
1.61476e-07
-2.39021e-06
1.60146e-07
-2.43215e-06
1.58668e-07
-2.47365e-06
1.57036e-07
-2.51467e-06
1.55246e-07
-2.55516e-06
1.53293e-07
-2.59509e-06
1.51173e-07
-2.63441e-06
1.48881e-07
-2.67307e-06
1.46413e-07
-2.71102e-06
1.43763e-07
-2.74822e-06
1.40927e-07
-2.7846e-06
1.379e-07
-2.82013e-06
1.34678e-07
-2.85475e-06
1.31256e-07
-2.8884e-06
1.27629e-07
-2.92103e-06
1.23792e-07
-2.95259e-06
1.19741e-07
-2.98301e-06
1.15472e-07
-3.01223e-06
1.1098e-07
-3.04021e-06
1.06262e-07
-3.06687e-06
1.01314e-07
-3.09216e-06
9.61329e-08
-3.11601e-06
9.07151e-08
-3.13836e-06
8.50583e-08
-3.15914e-06
7.916e-08
-3.1783e-06
7.30184e-08
-3.19577e-06
6.66324e-08
-3.21149e-06
6.00013e-08
-3.22539e-06
5.31247e-08
-3.2374e-06
4.60028e-08
-3.24747e-06
3.86372e-08
-3.25553e-06
3.10289e-08
-3.26151e-06
2.31815e-08
-3.26536e-06
1.50972e-08
6.78056e-09
-3.26701e-06
3.86774e-10
-1.92043e-09
1.34678e-09
-5.09683e-09
2.72063e-09
-7.64435e-09
4.37326e-09
-9.5679e-09
6.18488e-09
-1.08861e-08
8.04675e-09
-1.16257e-08
9.85832e-09
-1.18189e-08
1.1526e-08
-1.15016e-08
1.29623e-08
-1.07113e-08
1.4085e-08
-9.48628e-09
1.48179e-08
-7.86367e-09
1.509e-08
-5.87954e-09
1.48353e-08
-3.5679e-09
1.39937e-08
-9.60623e-10
1.25093e-08
1.91245e-09
1.03316e-08
5.02396e-09
7.41435e-09
8.3484e-09
3.71593e-09
1.18624e-08
-8.01232e-10
1.55444e-08
-6.17082e-09
1.93748e-08
-1.24229e-08
2.33353e-08
-1.95841e-08
2.74092e-08
-2.76777e-08
3.15812e-08
-3.67241e-08
3.5837e-08
-4.67408e-08
4.01637e-08
-5.77427e-08
4.4549e-08
-6.97422e-08
4.89819e-08
-8.27493e-08
5.34522e-08
-9.67722e-08
5.79501e-08
-1.11817e-07
6.24669e-08
-1.27887e-07
6.69943e-08
-1.44985e-07
7.15248e-08
-1.63112e-07
7.60512e-08
-1.82266e-07
8.05669e-08
-2.02445e-07
8.50657e-08
-2.23646e-07
8.95418e-08
-2.45863e-07
9.399e-08
-2.69091e-07
9.84051e-08
-2.93321e-07
1.02782e-07
-3.18545e-07
1.07118e-07
-3.44754e-07
1.11407e-07
-3.71937e-07
1.15645e-07
-4.00084e-07
1.19831e-07
-4.29181e-07
1.23959e-07
-4.59216e-07
1.28027e-07
-4.90175e-07
1.32032e-07
-5.22044e-07
1.35971e-07
-5.54808e-07
1.39842e-07
-5.88452e-07
1.43641e-07
-6.22958e-07
1.47368e-07
-6.58311e-07
1.51019e-07
-6.94492e-07
1.54593e-07
-7.31485e-07
1.58088e-07
-7.69271e-07
1.61501e-07
-8.0783e-07
1.64831e-07
-8.47144e-07
1.68077e-07
-8.87194e-07
1.71236e-07
-9.27959e-07
1.74308e-07
-9.69418e-07
1.7729e-07
-1.01155e-06
1.80182e-07
-1.05434e-06
1.82981e-07
-1.09776e-06
1.85687e-07
-1.14178e-06
1.88298e-07
-1.1864e-06
1.90812e-07
-1.23157e-06
1.93229e-07
-1.27729e-06
1.95547e-07
-1.32353e-06
1.97765e-07
-1.37026e-06
1.9988e-07
-1.41746e-06
2.01893e-07
-1.46511e-06
2.038e-07
-1.51318e-06
2.056e-07
-1.56164e-06
2.07293e-07
-1.61047e-06
2.08875e-07
-1.65965e-06
2.10345e-07
-1.70914e-06
2.11701e-07
-1.75892e-06
2.12941e-07
-1.80897e-06
2.14063e-07
-1.85924e-06
2.15064e-07
-1.90972e-06
2.15942e-07
-1.96037e-06
2.16694e-07
-2.01117e-06
2.17318e-07
-2.06208e-06
2.17811e-07
-2.11307e-06
2.18169e-07
-2.16411e-06
2.1839e-07
-2.21516e-06
2.18469e-07
-2.2662e-06
2.18405e-07
-2.31718e-06
2.18192e-07
-2.36808e-06
2.17827e-07
-2.41884e-06
2.17307e-07
-2.46944e-06
2.16626e-07
-2.51984e-06
2.1578e-07
-2.57e-06
2.14764e-07
-2.61987e-06
2.13575e-07
-2.66942e-06
2.12206e-07
-2.7186e-06
2.10652e-07
-2.76736e-06
2.08909e-07
-2.81566e-06
2.0697e-07
-2.86346e-06
2.04831e-07
-2.91069e-06
2.02485e-07
-2.95733e-06
1.99927e-07
-3.0033e-06
1.9715e-07
-3.04857e-06
1.94149e-07
-3.09308e-06
1.90917e-07
-3.13676e-06
1.87449e-07
-3.17957e-06
1.83738e-07
-3.22145e-06
1.79778e-07
-3.26234e-06
1.75563e-07
-3.30217e-06
1.71087e-07
-3.34088e-06
1.66343e-07
-3.37842e-06
1.61327e-07
-3.41471e-06
1.56032e-07
-3.44969e-06
1.50452e-07
-3.48329e-06
1.44583e-07
-3.51545e-06
1.38419e-07
-3.54609e-06
1.31955e-07
-3.57514e-06
1.25187e-07
-3.60254e-06
1.18112e-07
-3.62821e-06
1.10726e-07
-3.65207e-06
1.03026e-07
-3.67406e-06
9.50089e-08
-3.6941e-06
8.66744e-08
-3.71212e-06
7.80211e-08
-3.72805e-06
6.90486e-08
-3.7418e-06
5.97574e-08
-3.75331e-06
5.01495e-08
-3.76251e-06
4.02264e-08
-3.76932e-06
2.99924e-08
-3.77368e-06
1.94508e-08
8.60742e-09
-3.7755e-06
3.80062e-10
-2.30046e-09
1.3202e-09
-6.03696e-09
2.65568e-09
-8.9798e-09
4.24422e-09
-1.11565e-08
5.95933e-09
-1.26012e-08
7.68579e-09
-1.33521e-08
9.3177e-09
-1.34508e-08
1.07567e-08
-1.29406e-08
1.19108e-08
-1.18654e-08
1.26939e-08
-1.02694e-08
1.30257e-08
-8.19549e-09
1.28312e-08
-5.68505e-09
1.20407e-08
-2.77738e-09
1.05897e-08
4.90396e-10
8.4186e-09
4.08354e-09
5.47285e-09
7.96969e-09
1.70248e-09
1.21188e-08
-2.93801e-09
1.65029e-08
-8.4898e-09
2.10963e-08
-1.499e-08
2.58751e-08
-2.2472e-08
3.08173e-08
-3.09653e-08
3.59026e-08
-4.04963e-08
4.11121e-08
-5.10878e-08
4.64285e-08
-6.27598e-08
5.18357e-08
-7.55295e-08
5.73186e-08
-8.94111e-08
6.28636e-08
-1.04417e-07
6.84576e-08
-1.20555e-07
7.40888e-08
-1.37835e-07
7.97462e-08
-1.5626e-07
8.54193e-08
-1.75834e-07
9.10987e-08
-1.96558e-07
9.67752e-08
-2.18431e-07
1.02441e-07
-2.41453e-07
1.08087e-07
-2.65618e-07
1.13707e-07
-2.90922e-07
1.19294e-07
-3.17359e-07
1.24842e-07
-3.44921e-07
1.30344e-07
-3.73598e-07
1.35795e-07
-4.0338e-07
1.41189e-07
-4.34257e-07
1.46522e-07
-4.66217e-07
1.5179e-07
-4.99245e-07
1.56987e-07
-5.33328e-07
1.6211e-07
-5.6845e-07
1.67155e-07
-6.04597e-07
1.72118e-07
-6.41752e-07
1.76996e-07
-6.79896e-07
1.81786e-07
-7.19013e-07
1.86485e-07
-7.59084e-07
1.9109e-07
-8.0009e-07
1.95598e-07
-8.4201e-07
2.00008e-07
-8.84824e-07
2.04315e-07
-9.28512e-07
2.08519e-07
-9.73052e-07
2.12617e-07
-1.01842e-06
2.16606e-07
-1.0646e-06
2.20486e-07
-1.11156e-06
2.24253e-07
-1.15929e-06
2.27906e-07
-1.20775e-06
2.31442e-07
-1.25692e-06
2.34862e-07
-1.30679e-06
2.38161e-07
-1.35731e-06
2.41339e-07
-1.40848e-06
2.44395e-07
-1.46026e-06
2.47325e-07
-1.51262e-06
2.50128e-07
-1.56554e-06
2.52802e-07
-1.61899e-06
2.55346e-07
-1.67295e-06
2.57757e-07
-1.72739e-06
2.60033e-07
-1.78227e-06
2.62173e-07
-1.83756e-06
2.64173e-07
-1.89325e-06
2.66031e-07
-1.94929e-06
2.67744e-07
-2.00566e-06
2.69311e-07
-2.06233e-06
2.70727e-07
-2.11925e-06
2.71991e-07
-2.17641e-06
2.73098e-07
-2.23376e-06
2.74047e-07
-2.29127e-06
2.74832e-07
-2.34892e-06
2.75451e-07
-2.40665e-06
2.759e-07
-2.46443e-06
2.76174e-07
-2.52223e-06
2.76269e-07
-2.58001e-06
2.76182e-07
-2.63772e-06
2.75906e-07
-2.69533e-06
2.75438e-07
-2.7528e-06
2.74772e-07
-2.81007e-06
2.73902e-07
-2.86712e-06
2.72824e-07
-2.92388e-06
2.7153e-07
-2.98032e-06
2.70016e-07
-3.03639e-06
2.68275e-07
-3.09204e-06
2.66299e-07
-3.14722e-06
2.64084e-07
-3.20187e-06
2.61621e-07
-3.25594e-06
2.58904e-07
-3.30938e-06
2.55925e-07
-3.36213e-06
2.52677e-07
-3.41413e-06
2.49153e-07
-3.46533e-06
2.45345e-07
-3.51566e-06
2.41246e-07
-3.56506e-06
2.36847e-07
-3.61346e-06
2.32141e-07
-3.6608e-06
2.27121e-07
-3.70702e-06
2.21778e-07
-3.75204e-06
2.16105e-07
-3.79579e-06
2.10095e-07
-3.8382e-06
2.0374e-07
-3.8792e-06
1.97032e-07
-3.91872e-06
1.89966e-07
-3.95667e-06
1.82534e-07
-3.99298e-06
1.7473e-07
-4.02757e-06
1.66548e-07
-4.06037e-06
1.57983e-07
-4.09128e-06
1.49029e-07
-4.12024e-06
1.39684e-07
-4.14716e-06
1.29942e-07
-4.17195e-06
1.19802e-07
-4.19454e-06
1.09262e-07
-4.21484e-06
9.8319e-08
-4.23276e-06
8.69746e-08
-4.24823e-06
7.52287e-08
-4.26117e-06
6.30839e-08
-4.27148e-06
5.05423e-08
-4.2791e-06
3.76091e-08
-4.28394e-06
2.4289e-08
1.0589e-08
-4.28592e-06
3.62321e-10
-2.66279e-09
1.25316e-09
-6.92768e-09
2.5064e-09
-1.02331e-08
3.9761e-09
-1.26262e-08
5.53082e-09
-1.41559e-08
7.05103e-09
-1.48723e-08
8.42647e-09
-1.48262e-08
9.55485e-09
-1.4069e-08
1.03408e-08
-1.26513e-08
1.06947e-08
-1.06233e-08
1.05328e-08
-8.03371e-09
9.77709e-09
-4.92928e-09
8.35441e-09
-1.35466e-09
6.19685e-09
2.64794e-09
3.24165e-09
7.03879e-09
-5.69285e-10