/*--------------------------------*- C++ -*----------------------------------*\
| =========                 |                                                 |
| \\      /  F ield         | OpenFOAM: The Open Source CFD Toolbox           |
|  \\    /   O peration     | Version:  2112                                  |
|   \\  /    A nd           | Website:  www.openfoam.com                      |
|    \\/     M anipulation  |                                                 |
\*---------------------------------------------------------------------------*/
FoamFile
{
    version     2.0;
    format      ascii;
    arch        "LSB;label=32;scalar=64";
    class       volVectorField;
    location    "5.92";
    object      U;
}
// * * * * * * * * * * * * * * * * * * * * * * * * * * * * * * * * * * * * * //

dimensions      [0 1 -1 0 0 0 0];

internalField   nonuniform List<vector> 
66564
(
(-6.58721e-08 1.00172e-07 0)
(-4.84385e-08 -1.74162e-08 0)
(4.09152e-07 -1.88344e-07 0)
(1.21636e-06 -3.11042e-07 0)
(2.31174e-06 -3.94411e-07 0)
(3.59224e-06 -4.45903e-07 0)
(4.98486e-06 -4.71615e-07 0)
(6.42514e-06 -4.77083e-07 0)
(7.85924e-06 -4.66987e-07 0)
(9.24202e-06 -4.43808e-07 0)
(1.0536e-05 -4.10511e-07 0)
(1.17091e-05 -3.69839e-07 0)
(1.27343e-05 -3.21914e-07 0)
(1.35881e-05 -2.69734e-07 0)
(1.42509e-05 -2.12477e-07 0)
(1.47061e-05 -1.51665e-07 0)
(1.49381e-05 -8.80706e-08 0)
(1.49358e-05 -2.16531e-08 0)
(1.46882e-05 4.56007e-08 0)
(1.41859e-05 1.14856e-07 0)
(1.34221e-05 1.85515e-07 0)
(1.23895e-05 2.55727e-07 0)
(1.10839e-05 3.26356e-07 0)
(9.50117e-06 3.97518e-07 0)
(7.63674e-06 4.68669e-07 0)
(5.48892e-06 5.40525e-07 0)
(3.05561e-06 6.1227e-07 0)
(3.34784e-07 6.82706e-07 0)
(-2.67299e-06 7.52132e-07 0)
(-5.96793e-06 8.20405e-07 0)
(-9.55037e-06 8.87572e-07 0)
(-1.34187e-05 9.53922e-07 0)
(-1.75721e-05 1.02011e-06 0)
(-2.20093e-05 1.08477e-06 0)
(-2.67281e-05 1.14863e-06 0)
(-3.17263e-05 1.21165e-06 0)
(-3.70014e-05 1.27297e-06 0)
(-4.25508e-05 1.33241e-06 0)
(-4.83707e-05 1.39072e-06 0)
(-5.44582e-05 1.44748e-06 0)
(-6.08101e-05 1.50231e-06 0)
(-6.74221e-05 1.55598e-06 0)
(-7.42905e-05 1.60847e-06 0)
(-8.14116e-05 1.65918e-06 0)
(-8.87812e-05 1.70869e-06 0)
(-9.63946e-05 1.75722e-06 0)
(-0.000104248 1.80384e-06 0)
(-0.000112336 1.8485e-06 0)
(-0.000120655 1.89178e-06 0)
(-0.000129198 1.9336e-06 0)
(-0.000137963 1.97337e-06 0)
(-0.000146943 2.01136e-06 0)
(-0.000156133 2.04834e-06 0)
(-0.000165529 2.08404e-06 0)
(-0.000175125 2.11798e-06 0)
(-0.000184916 2.15041e-06 0)
(-0.000194897 2.18165e-06 0)
(-0.000205062 2.21115e-06 0)
(-0.000215406 2.23883e-06 0)
(-0.000225922 2.26498e-06 0)
(-0.000236606 2.28984e-06 0)
(-0.000247453 2.31306e-06 0)
(-0.000258455 2.33419e-06 0)
(-0.000269607 2.35423e-06 0)
(-0.000280905 2.37361e-06 0)
(-0.000292341 2.39109e-06 0)
(-0.00030391 2.40644e-06 0)
(-0.000315606 2.42112e-06 0)
(-0.000327423 2.43492e-06 0)
(-0.000339355 2.44668e-06 0)
(-0.000351395 2.45663e-06 0)
(-0.000363538 2.46516e-06 0)
(-0.000375776 2.47231e-06 0)
(-0.000388104 2.47804e-06 0)
(-0.000400515 2.48226e-06 0)
(-0.000413002 2.48542e-06 0)
(-0.000425559 2.48697e-06 0)
(-0.000438179 2.48697e-06 0)
(-0.000450854 2.48571e-06 0)
(-0.000463578 2.48321e-06 0)
(-0.000476344 2.47937e-06 0)
(-0.000489143 2.47378e-06 0)
(-0.000501969 2.4665e-06 0)
(-0.000514813 2.45786e-06 0)
(-0.000527668 2.44769e-06 0)
(-0.000540525 2.43591e-06 0)
(-0.000553376 2.42256e-06 0)
(-0.000566212 2.40761e-06 0)
(-0.000579025 2.3912e-06 0)
(-0.000591805 2.37331e-06 0)
(-0.000604544 2.35373e-06 0)
(-0.000617231 2.33253e-06 0)
(-0.000629857 2.30983e-06 0)
(-0.000642411 2.28519e-06 0)
(-0.000654884 2.25869e-06 0)
(-0.000667264 2.23058e-06 0)
(-0.00067954 2.20063e-06 0)
(-0.0006917 2.1687e-06 0)
(-0.000703733 2.13488e-06 0)
(-0.000715627 2.09906e-06 0)
(-0.000727368 2.06124e-06 0)
(-0.000738945 2.02151e-06 0)
(-0.000750343 1.97985e-06 0)
(-0.000761549 1.93603e-06 0)
(-0.000772549 1.89003e-06 0)
(-0.000783329 1.84206e-06 0)
(-0.000793873 1.79193e-06 0)
(-0.000804166 1.73945e-06 0)
(-0.000814194 1.68491e-06 0)
(-0.000823938 1.62799e-06 0)
(-0.000833385 1.56884e-06 0)
(-0.000842515 1.50719e-06 0)
(-0.000851313 1.4432e-06 0)
(-0.00085976 1.37692e-06 0)
(-0.00086784 1.30824e-06 0)
(-0.000875533 1.23725e-06 0)
(-0.000882823 1.16368e-06 0)
(-0.000889689 1.088e-06 0)
(-0.000896114 1.00978e-06 0)
(-0.000902077 9.29183e-07 0)
(-0.000907561 8.46156e-07 0)
(-0.000912545 7.60907e-07 0)
(-0.00091701 6.73303e-07 0)
(-0.000920938 5.83753e-07 0)
(-0.000924308 4.91507e-07 0)
(-0.000927101 3.97363e-07 0)
(-0.000929298 3.01174e-07 0)
(-0.000930881 2.02786e-07 0)
(-0.000931831 1.02974e-07 0)
(5.92118e-08 3.7205e-08 0)
(6.01938e-07 -5.5059e-07 0)
(2.00754e-06 -1.26339e-06 0)
(4.17732e-06 -1.83553e-06 0)
(6.93272e-06 -2.24921e-06 0)
(1.01142e-05 -2.51572e-06 0)
(1.35574e-05 -2.65149e-06 0)
(1.71118e-05 -2.67757e-06 0)
(2.0643e-05 -2.61108e-06 0)
(2.4035e-05 -2.46719e-06 0)
(2.71841e-05 -2.25976e-06 0)
(3.00021e-05 -1.99803e-06 0)
(3.24126e-05 -1.69263e-06 0)
(3.43477e-05 -1.34989e-06 0)
(3.57511e-05 -9.76439e-07 0)
(3.65704e-05 -5.78087e-07 0)
(3.67642e-05 -1.57852e-07 0)
(3.62937e-05 2.78452e-07 0)
(3.51267e-05 7.28085e-07 0)
(3.32365e-05 1.1888e-06 0)
(3.05973e-05 1.65704e-06 0)
(2.71908e-05 2.13095e-06 0)
(2.29999e-05 2.60848e-06 0)
(1.80093e-05 3.08706e-06 0)
(1.22092e-05 3.56661e-06 0)
(5.58989e-06 4.04564e-06 0)
(-1.8562e-06 4.52224e-06 0)
(-1.01325e-05 4.99582e-06 0)
(-1.92431e-05 5.46485e-06 0)
(-2.91898e-05 5.92832e-06 0)
(-3.99716e-05 6.38567e-06 0)
(-5.15877e-05 6.837e-06 0)
(-6.40357e-05 7.28059e-06 0)
(-7.73121e-05 7.71718e-06 0)
(-9.14116e-05 8.14542e-06 0)
(-0.000106329 8.56539e-06 0)
(-0.000122057 8.97603e-06 0)
(-0.000138588 9.37733e-06 0)
(-0.000155915 9.76927e-06 0)
(-0.000174028 1.0151e-05 0)
(-0.000192917 1.05225e-05 0)
(-0.000212573 1.08843e-05 0)
(-0.000232984 1.12354e-05 0)
(-0.000254139 1.15758e-05 0)
(-0.000276027 1.1906e-05 0)
(-0.000298634 1.22257e-05 0)
(-0.000321948 1.25343e-05 0)
(-0.000345957 1.28322e-05 0)
(-0.000370646 1.31193e-05 0)
(-0.000396002 1.33957e-05 0)
(-0.000422011 1.36609e-05 0)
(-0.000448658 1.39152e-05 0)
(-0.000475929 1.41591e-05 0)
(-0.000503809 1.4392e-05 0)
(-0.000532282 1.46142e-05 0)
(-0.000561333 1.48259e-05 0)
(-0.000590947 1.50268e-05 0)
(-0.000621107 1.5217e-05 0)
(-0.000651798 1.53968e-05 0)
(-0.000683003 1.5566e-05 0)
(-0.000714706 1.57247e-05 0)
(-0.00074689 1.58734e-05 0)
(-0.000779538 1.60115e-05 0)
(-0.000812633 1.61391e-05 0)
(-0.000846159 1.62572e-05 0)
(-0.000880098 1.63654e-05 0)
(-0.000914432 1.64628e-05 0)
(-0.000949144 1.65503e-05 0)
(-0.000984215 1.66285e-05 0)
(-0.00101963 1.66966e-05 0)
(-0.00105536 1.67548e-05 0)
(-0.0010914 1.68033e-05 0)
(-0.00112773 1.68418e-05 0)
(-0.00116432 1.68707e-05 0)
(-0.00120116 1.68899e-05 0)
(-0.00123823 1.68995e-05 0)
(-0.0012755 1.68994e-05 0)
(-0.00131296 1.68892e-05 0)
(-0.00135058 1.68694e-05 0)
(-0.00138835 1.68398e-05 0)
(-0.00142624 1.68005e-05 0)
(-0.00146423 1.67511e-05 0)
(-0.0015023 1.66916e-05 0)
(-0.00154042 1.66222e-05 0)
(-0.00157857 1.65428e-05 0)
(-0.00161673 1.64528e-05 0)
(-0.00165487 1.63526e-05 0)
(-0.00169296 1.62421e-05 0)
(-0.00173098 1.61209e-05 0)
(-0.00176891 1.59889e-05 0)
(-0.0018067 1.58461e-05 0)
(-0.00184434 1.56924e-05 0)
(-0.0018818 1.55276e-05 0)
(-0.00191904 1.53511e-05 0)
(-0.00195604 1.51629e-05 0)
(-0.00199276 1.49631e-05 0)
(-0.00202916 1.47513e-05 0)
(-0.00206522 1.45271e-05 0)
(-0.0021009 1.42905e-05 0)
(-0.00213616 1.40416e-05 0)
(-0.00217096 1.37797e-05 0)
(-0.00220527 1.35045e-05 0)
(-0.00223905 1.32161e-05 0)
(-0.00227226 1.29146e-05 0)
(-0.00230484 1.2599e-05 0)
(-0.00233677 1.22694e-05 0)
(-0.002368 1.19259e-05 0)
(-0.00239848 1.1568e-05 0)
(-0.00242816 1.11958e-05 0)
(-0.00245701 1.08087e-05 0)
(-0.00248496 1.04069e-05 0)
(-0.00251197 9.99015e-06 0)
(-0.00253799 9.55821e-06 0)
(-0.00256297 9.11125e-06 0)
(-0.00258686 8.64902e-06 0)
(-0.00260959 8.17179e-06 0)
(-0.00263113 7.67908e-06 0)
(-0.0026514 7.17133e-06 0)
(-0.00267037 6.64847e-06 0)
(-0.00268796 6.11042e-06 0)
(-0.00270413 5.55732e-06 0)
(-0.00271881 4.98952e-06 0)
(-0.00273196 4.40723e-06 0)
(-0.00274351 3.81121e-06 0)
(-0.00275341 3.20108e-06 0)
(-0.00276159 2.57727e-06 0)
(-0.00276801 1.94093e-06 0)
(-0.00277261 1.29165e-06 0)
(-0.00277533 6.31273e-07 0)
(1.97497e-07 -4.17109e-07 0)
(1.27185e-06 -1.98166e-06 0)
(3.60627e-06 -3.59484e-06 0)
(6.91985e-06 -4.9295e-06 0)
(1.0991e-05 -5.92053e-06 0)
(1.56084e-05 -6.56563e-06 0)
(2.05595e-05 -6.89406e-06 0)
(2.56347e-05 -6.941e-06 0)
(3.06449e-05 -6.74371e-06 0)
(3.54171e-05 -6.33865e-06 0)
(3.97982e-05 -5.75473e-06 0)
(4.36523e-05 -5.02071e-06 0)
(4.68581e-05 -4.15896e-06 0)
(4.93117e-05 -3.18912e-06 0)
(5.09184e-05 -2.13072e-06 0)
(5.1599e-05 -9.95549e-07 0)
(5.12802e-05 2.01074e-07 0)
(4.99007e-05 1.44831e-06 0)
(4.74082e-05 2.73767e-06 0)
(4.37531e-05 4.05824e-06 0)
(3.88965e-05 5.4047e-06 0)
(3.28044e-05 6.76986e-06 0)
(2.5446e-05 8.1462e-06 0)
(1.67985e-05 9.53035e-06 0)
(6.84095e-06 1.09171e-05 0)
(-4.4438e-06 1.23018e-05 0)
(-1.70671e-05 1.36821e-05 0)
(-3.10396e-05 1.5054e-05 0)
(-4.63679e-05 1.64137e-05 0)
(-6.30552e-05 1.77603e-05 0)
(-8.11035e-05 1.90904e-05 0)
(-0.000100512 2.0402e-05 0)
(-0.000121277 2.16938e-05 0)
(-0.000143395 2.29634e-05 0)
(-0.000166858 2.42103e-05 0)
(-0.000191658 2.54324e-05 0)
(-0.000217786 2.66288e-05 0)
(-0.000245229 2.77984e-05 0)
(-0.000273976 2.89405e-05 0)
(-0.000304012 3.00542e-05 0)
(-0.000335322 3.11387e-05 0)
(-0.000367891 3.21938e-05 0)
(-0.000401701 3.32188e-05 0)
(-0.000436734 3.4213e-05 0)
(-0.000472971 3.51765e-05 0)
(-0.000510394 3.61091e-05 0)
(-0.00054898 3.70102e-05 0)
(-0.00058871 3.78796e-05 0)
(-0.000629561 3.87175e-05 0)
(-0.000671512 3.95239e-05 0)
(-0.00071454 4.02984e-05 0)
(-0.000758621 4.10412e-05 0)
(-0.000803731 4.17524e-05 0)
(-0.000849846 4.24321e-05 0)
(-0.000896942 4.30802e-05 0)
(-0.000944993 4.36969e-05 0)
(-0.000993974 4.42823e-05 0)
(-0.00104386 4.48365e-05 0)
(-0.00109462 4.53597e-05 0)
(-0.00114623 4.58519e-05 0)
(-0.00119867 4.63135e-05 0)
(-0.0012519 4.67451e-05 0)
(-0.0013059 4.71461e-05 0)
(-0.00136064 4.75168e-05 0)
(-0.0014161 4.78583e-05 0)
(-0.00147224 4.81703e-05 0)
(-0.00152903 4.84519e-05 0)
(-0.00158645 4.87043e-05 0)
(-0.00164446 4.89281e-05 0)
(-0.00170304 4.91224e-05 0)
(-0.00176215 4.92876e-05 0)
(-0.00182177 4.9424e-05 0)
(-0.00188186 4.95316e-05 0)
(-0.0019424 4.96105e-05 0)
(-0.00200334 4.96606e-05 0)
(-0.00206466 4.96825e-05 0)
(-0.00212632 4.96755e-05 0)
(-0.00218828 4.96394e-05 0)
(-0.00225052 4.95747e-05 0)
(-0.002313 4.94811e-05 0)
(-0.00237568 4.93584e-05 0)
(-0.00243853 4.92064e-05 0)
(-0.0025015 4.90249e-05 0)
(-0.00256456 4.88139e-05 0)
(-0.00262766 4.85731e-05 0)
(-0.00269078 4.8302e-05 0)
(-0.00275386 4.80006e-05 0)
(-0.00281686 4.76684e-05 0)
(-0.00287975 4.73051e-05 0)
(-0.00294247 4.69104e-05 0)
(-0.00300497 4.64838e-05 0)
(-0.00306722 4.60247e-05 0)
(-0.00312915 4.5533e-05 0)
(-0.00319073 4.50076e-05 0)
(-0.00325189 4.44479e-05 0)
(-0.0033126 4.3854e-05 0)
(-0.00337278 4.3225e-05 0)
(-0.00343238 4.25599e-05 0)
(-0.00349135 4.18586e-05 0)
(-0.00354962 4.11207e-05 0)
(-0.00360713 4.03453e-05 0)
(-0.00366382 3.95315e-05 0)
(-0.00371963 3.86791e-05 0)
(-0.00377448 3.77874e-05 0)
(-0.00382831 3.68558e-05 0)
(-0.00388104 3.58837e-05 0)
(-0.00393261 3.48705e-05 0)
(-0.00398293 3.38156e-05 0)
(-0.00403194 3.27189e-05 0)
(-0.00407954 3.15797e-05 0)
(-0.00412567 3.03974e-05 0)
(-0.00417024 2.91717e-05 0)
(-0.00421317 2.79022e-05 0)
(-0.00425437 2.65893e-05 0)
(-0.00429375 2.52322e-05 0)
(-0.00433123 2.38311e-05 0)
(-0.00436672 2.23856e-05 0)
(-0.00440013 2.08967e-05 0)
(-0.00443136 1.93641e-05 0)
(-0.00446033 1.77879e-05 0)
(-0.00448694 1.61687e-05 0)
(-0.00451109 1.45071e-05 0)
(-0.0045327 1.28037e-05 0)
(-0.00455166 1.10602e-05 0)
(-0.0045679 9.27642e-06 0)
(-0.0045813 7.45406e-06 0)
(-0.00459179 5.59507e-06 0)
(-0.00459927 3.69961e-06 0)
(-0.00460365 1.77114e-06 0)
(3.13275e-07 -1.24395e-06 0)
(1.8346e-06 -4.1596e-06 0)
(4.92931e-06 -6.91343e-06 0)
(9.17059e-06 -9.17301e-06 0)
(1.42496e-05 -1.08459e-05 0)
(1.99229e-05 -1.19305e-05 0)
(2.59348e-05 -1.24606e-05 0)
(3.20395e-05 -1.24891e-05 0)
(3.80037e-05 -1.20752e-05 0)
(4.36163e-05 -1.1274e-05 0)
(4.86834e-05 -1.01388e-05 0)
(5.30297e-05 -8.71633e-06 0)
(5.65011e-05 -7.04718e-06 0)
(5.89557e-05 -5.16987e-06 0)
(6.02723e-05 -3.1138e-06 0)
(6.03405e-05 -9.09456e-07 0)
(5.90626e-05 1.41918e-06 0)
(5.63551e-05 3.85243e-06 0)
(5.21419e-05 6.36819e-06 0)
(4.63587e-05 8.95147e-06 0)
(3.89488e-05 1.15878e-05 0)
(2.9862e-05 1.42627e-05 0)
(1.90574e-05 1.69658e-05 0)
(6.49931e-06 1.96864e-05 0)
(-7.84234e-06 2.24142e-05 0)
(-2.3991e-05 2.51422e-05 0)
(-4.19666e-05 2.78629e-05 0)
(-6.17843e-05 3.05685e-05 0)
(-8.34549e-05 3.32547e-05 0)
(-0.000106985 3.59153e-05 0)
(-0.00013238 3.85459e-05 0)
(-0.000159639 4.11421e-05 0)
(-0.000188759 4.37009e-05 0)
(-0.000219735 4.62172e-05 0)
(-0.00025256 4.86897e-05 0)
(-0.000287223 5.1115e-05 0)
(-0.000323713 5.34901e-05 0)
(-0.000362014 5.58138e-05 0)
(-0.00040211 5.8084e-05 0)
(-0.000443984 6.02987e-05 0)
(-0.000487615 6.24568e-05 0)
(-0.000532983 6.45571e-05 0)
(-0.000580064 6.65983e-05 0)
(-0.000628836 6.85795e-05 0)
(-0.000679272 7.05002e-05 0)
(-0.000731346 7.23596e-05 0)
(-0.000785031 7.41571e-05 0)
(-0.000840299 7.58925e-05 0)
(-0.000897119 7.75654e-05 0)
(-0.000955463 7.91756e-05 0)
(-0.0010153 8.07233e-05 0)
(-0.00107659 8.22084e-05 0)
(-0.00113932 8.36303e-05 0)
(-0.00120344 8.49895e-05 0)
(-0.00126891 8.62862e-05 0)
(-0.00133572 8.75204e-05 0)
(-0.00140381 8.86921e-05 0)
(-0.00147316 8.98018e-05 0)
(-0.00154373 9.08499e-05 0)
(-0.00161548 9.18365e-05 0)
(-0.00168838 9.27616e-05 0)
(-0.00176238 9.36263e-05 0)
(-0.00183746 9.4431e-05 0)
(-0.00191356 9.51749e-05 0)
(-0.00199065 9.58591e-05 0)
(-0.00206869 9.64846e-05 0)
(-0.00214765 9.70507e-05 0)
(-0.00222748 9.75574e-05 0)
(-0.00230813 9.80058e-05 0)
(-0.00238957 9.8396e-05 0)
(-0.00247176 9.87282e-05 0)
(-0.00255465 9.90024e-05 0)
(-0.00263819 9.92187e-05 0)
(-0.00272235 9.93773e-05 0)
(-0.00280708 9.94783e-05 0)
(-0.00289233 9.95218e-05 0)
(-0.00297806 9.95075e-05 0)
(-0.00306421 9.9435e-05 0)
(-0.00315074 9.93047e-05 0)
(-0.00323761 9.91162e-05 0)
(-0.00332475 9.88692e-05 0)
(-0.00341212 9.85634e-05 0)
(-0.00349966 9.81985e-05 0)
(-0.00358732 9.77743e-05 0)
(-0.00367505 9.72898e-05 0)
(-0.00376279 9.67446e-05 0)
(-0.00385048 9.61386e-05 0)
(-0.00393805 9.54707e-05 0)
(-0.00402546 9.474e-05 0)
(-0.00411263 9.39458e-05 0)
(-0.0041995 9.30878e-05 0)
(-0.00428601 9.21645e-05 0)
(-0.00437208 9.11752e-05 0)
(-0.00445765 9.01185e-05 0)
(-0.00454264 8.89933e-05 0)
(-0.00462698 8.77991e-05 0)
(-0.00471059 8.65345e-05 0)
(-0.00479339 8.51978e-05 0)
(-0.0048753 8.37884e-05 0)
(-0.00495624 8.23055e-05 0)
(-0.00503612 8.07474e-05 0)
(-0.00511485 7.91125e-05 0)
(-0.00519234 7.74e-05 0)
(-0.00526849 7.5609e-05 0)
(-0.00534322 7.37381e-05 0)
(-0.00541642 7.17859e-05 0)
(-0.00548799 6.97517e-05 0)
(-0.00555782 6.76342e-05 0)
(-0.00562581 6.5433e-05 0)
(-0.00569186 6.31467e-05 0)
(-0.00575585 6.07745e-05 0)
(-0.00581766 5.83158e-05 0)
(-0.00587718 5.577e-05 0)
(-0.0059343 5.31372e-05 0)
(-0.00598889 5.04161e-05 0)
(-0.00604082 4.76075e-05 0)
(-0.00608999 4.47108e-05 0)
(-0.00613626 4.17268e-05 0)
(-0.0061795 3.86555e-05 0)
(-0.00621959 3.54977e-05 0)
(-0.00625639 3.22547e-05 0)
(-0.00628979 2.89274e-05 0)
(-0.00631965 2.55169e-05 0)
(-0.00634584 2.20258e-05 0)
(-0.00636823 1.84557e-05 0)
(-0.00638669 1.48085e-05 0)
(-0.0064011 1.10884e-05 0)
(-0.00641132 7.29618e-06 0)
(-0.00641725 3.43737e-06 0)
(3.93747e-07 -2.32982e-06 0)
(2.24432e-06 -6.91715e-06 0)
(5.91694e-06 -1.09853e-05 0)
(1.08418e-05 -1.42536e-05 0)
(1.66394e-05 -1.66432e-05 0)
(2.30213e-05 -1.81592e-05 0)
(2.97044e-05 -1.88496e-05 0)
(3.6407e-05 -1.87859e-05 0)
(4.28679e-05 -1.80456e-05 0)
(4.88437e-05 -1.67081e-05 0)
(5.41091e-05 -1.4848e-05 0)
(5.84611e-05 -1.25325e-05 0)
(6.17121e-05 -9.82577e-06 0)
(6.36962e-05 -6.78055e-06 0)
(6.42622e-05 -3.44765e-06 0)
(6.32754e-05 1.29144e-07 0)
(6.06177e-05 3.91253e-06 0)
(5.61808e-05 7.86697e-06 0)
(4.98711e-05 1.19627e-05 0)
(4.16067e-05 1.6173e-05 0)
(3.13139e-05 2.04726e-05 0)
(1.89304e-05 2.48408e-05 0)
(4.40148e-06 2.92591e-05 0)
(-1.23202e-05 3.37092e-05 0)
(-3.12733e-05 3.81772e-05 0)
(-5.24904e-05 4.26488e-05 0)
(-7.59986e-05 4.71112e-05 0)
(-0.000101819 5.15539e-05 0)
(-0.000129966 5.59668e-05 0)
(-0.000160451 6.03408e-05 0)
(-0.000193283 6.46686e-05 0)
(-0.000228461 6.89429e-05 0)
(-0.000265985 7.31566e-05 0)
(-0.000305851 7.73052e-05 0)
(-0.00034805 8.13825e-05 0)
(-0.00039257 8.53841e-05 0)
(-0.000439398 8.93061e-05 0)
(-0.000488517 9.31443e-05 0)
(-0.000539907 9.68958e-05 0)
(-0.000593548 0.000100558 0)
(-0.000649415 0.000104128 0)
(-0.000707483 0.000107603 0)
(-0.000767724 0.000110983 0)
(-0.000830109 0.000114264 0)
(-0.000894607 0.000117447 0)
(-0.000961186 0.000120529 0)
(-0.00102981 0.00012351 0)
(-0.00110045 0.000126389 0)
(-0.00117306 0.000129165 0)
(-0.00124761 0.000131838 0)
(-0.00132405 0.000134408 0)
(-0.00140236 0.000136875 0)
(-0.00148248 0.000139237 0)
(-0.00156438 0.000141497 0)
(-0.00164802 0.000143653 0)
(-0.00173334 0.000145706 0)
(-0.00182031 0.000147655 0)
(-0.00190888 0.000149502 0)
(-0.001999 0.000151247 0)
(-0.00209064 0.00015289 0)
(-0.00218373 0.000154431 0)
(-0.00227824 0.000155871 0)
(-0.00237411 0.000157212 0)
(-0.0024713 0.000158453 0)
(-0.00256975 0.000159594 0)
(-0.00266942 0.000160636 0)
(-0.00277025 0.000161581 0)
(-0.0028722 0.000162427 0)
(-0.0029752 0.000163175 0)
(-0.00307921 0.000163826 0)
(-0.00318417 0.000164381 0)
(-0.00329003 0.000164839 0)
(-0.00339673 0.0001652 0)
(-0.00350421 0.000165466 0)
(-0.00361241 0.000165635 0)
(-0.00372129 0.000165708 0)
(-0.00383077 0.000165684 0)
(-0.00394079 0.000165563 0)
(-0.0040513 0.000165346 0)
(-0.00416223 0.000165032 0)
(-0.00427351 0.000164619 0)
(-0.00438508 0.000164109 0)
(-0.00449688 0.0001635 0)
(-0.00460882 0.000162791 0)
(-0.00472084 0.000161982 0)
(-0.00483287 0.000161072 0)
(-0.00494484 0.00016006 0)
(-0.00505666 0.000158944 0)
(-0.00516825 0.000157723 0)
(-0.00527954 0.000156397 0)
(-0.00539045 0.000154964 0)
(-0.00550088 0.000153421 0)
(-0.00561075 0.000151768 0)
(-0.00571997 0.000150004 0)
(-0.00582845 0.000148124 0)
(-0.00593609 0.00014613 0)
(-0.00604279 0.000144017 0)
(-0.00614845 0.000141785 0)
(-0.00625297 0.000139432 0)
(-0.00635623 0.000136956 0)
(-0.00645814 0.000134354 0)
(-0.00655857 0.000131625 0)
(-0.00665741 0.000128767 0)
(-0.00675453 0.000125778 0)
(-0.00684983 0.000122655 0)
(-0.00694316 0.000119398 0)
(-0.00703441 0.000116004 0)
(-0.00712343 0.000112472 0)
(-0.00721009 0.0001088 0)
(-0.00729426 0.000104988 0)
(-0.00737579 0.000101032 0)
(-0.00745454 9.69328e-05 0)
(-0.00753036 9.26889e-05 0)
(-0.00760309 8.83002e-05 0)
(-0.0076726 8.37655e-05 0)
(-0.00773871 7.90855e-05 0)
(-0.00780128 7.42595e-05 0)
(-0.00786015 6.92884e-05 0)
(-0.00791515 6.4173e-05 0)
(-0.00796612 5.89142e-05 0)
(-0.0080129 5.3514e-05 0)
(-0.00805532 4.79743e-05 0)
(-0.00809322 4.22974e-05 0)
(-0.00812644 3.64866e-05 0)
(-0.00815481 3.05452e-05 0)
(-0.00817817 2.44762e-05 0)
(-0.00819636 1.82862e-05 0)
(-0.00820922 1.19778e-05 0)
(-0.00821658 5.55843e-06 0)
(4.45238e-07 -3.60485e-06 0)
(2.51159e-06 -1.00987e-05 0)
(6.56511e-06 -1.5605e-05 0)
(1.19334e-05 -1.99284e-05 0)
(1.81648e-05 -2.30274e-05 0)
(2.49379e-05 -2.49295e-05 0)
(3.19347e-05 -2.57056e-05 0)
(3.88506e-05 -2.5445e-05 0)
(4.53985e-05 -2.42496e-05 0)
(5.13098e-05 -2.222e-05 0)
(5.63374e-05 -1.94525e-05 0)
(6.02504e-05 -1.60401e-05 0)
(6.2841e-05 -1.20638e-05 0)
(6.39176e-05 -7.60047e-06 0)
(6.33062e-05 -2.71828e-06 0)
(6.08527e-05 2.5233e-06 0)
(5.64156e-05 8.06809e-06 0)
(4.98696e-05 1.38677e-05 0)
(4.11034e-05 1.988e-05 0)
(3.00169e-05 2.60641e-05 0)
(1.65231e-05 3.23861e-05 0)
(5.45821e-07 3.88147e-05 0)
(-1.79823e-05 4.53209e-05 0)
(-3.91189e-05 5.18803e-05 0)
(-6.29123e-05 5.84705e-05 0)
(-8.94047e-05 6.50707e-05 0)
(-0.00011863 7.16627e-05 0)
(-0.000150614 7.82305e-05 0)
(-0.00018538 8.47581e-05 0)
(-0.000222941 9.1233e-05 0)
(-0.000263309 9.76427e-05 0)
(-0.000306488 0.000103977 0)
(-0.000352477 0.000110225 0)
(-0.000401274 0.00011638 0)
(-0.000452871 0.000122432 0)
(-0.000507255 0.000128374 0)
(-0.000564412 0.000134202 0)
(-0.000624323 0.000139907 0)
(-0.000686966 0.000145486 0)
(-0.000752317 0.000150935 0)
(-0.000820349 0.000156249 0)
(-0.000891033 0.000161424 0)
(-0.000964336 0.000166458 0)
(-0.00104022 0.000171349 0)
(-0.00111866 0.000176093 0)
(-0.00119961 0.000180689 0)
(-0.00128303 0.000185136 0)
(-0.00136888 0.000189432 0)
(-0.00145712 0.000193577 0)
(-0.0015477 0.000197569 0)
(-0.00164057 0.000201407 0)
(-0.0017357 0.000205093 0)
(-0.00183302 0.000208624 0)
(-0.0019325 0.000212002 0)
(-0.00203407 0.000215226 0)
(-0.00213769 0.000218297 0)
(-0.00224331 0.000221214 0)
(-0.00235086 0.000223978 0)
(-0.0024603 0.00022659 0)
(-0.00257158 0.00022905 0)
(-0.00268462 0.000231358 0)
(-0.00279937 0.000233516 0)
(-0.00291579 0.000235524 0)
(-0.0030338 0.000237383 0)
(-0.00315334 0.000239093 0)
(-0.00327436 0.000240656 0)
(-0.0033968 0.000242072 0)
(-0.00352058 0.00024334 0)
(-0.00364565 0.000244463 0)
(-0.00377194 0.00024544 0)
(-0.00389939 0.000246272 0)
(-0.00402792 0.000246959 0)
(-0.00415747 0.000247501 0)
(-0.00428798 0.000247898 0)
(-0.00441936 0.000248152 0)
(-0.00455156 0.00024826 0)
(-0.00468449 0.000248224 0)
(-0.00481808 0.000248042 0)
(-0.00495225 0.000247715 0)
(-0.00508694 0.000247242 0)
(-0.00522205 0.000246622 0)
(-0.00535751 0.000245854 0)
(-0.00549324 0.000244939 0)
(-0.00562914 0.000243873 0)
(-0.00576514 0.000242657 0)
(-0.00590115 0.000241288 0)
(-0.00603706 0.000239766 0)
(-0.0061728 0.000238088 0)
(-0.00630826 0.000236253 0)
(-0.00644335 0.000234259 0)
(-0.00657796 0.000232104 0)
(-0.00671199 0.000229786 0)
(-0.00684533 0.000227301 0)
(-0.00697788 0.000224648 0)
(-0.00710951 0.000221824 0)
(-0.00724012 0.000218826 0)
(-0.00736958 0.000215652 0)
(-0.00749777 0.000212299 0)
(-0.00762456 0.000208763 0)
(-0.00774982 0.000205043 0)
(-0.00787343 0.000201135 0)
(-0.00799523 0.000197037 0)
(-0.00811509 0.000192744 0)
(-0.00823286 0.000188255 0)
(-0.0083484 0.000183567 0)
(-0.00846154 0.000178677 0)
(-0.00857214 0.000173583 0)
(-0.00868004 0.000168282 0)
(-0.00878506 0.000162772 0)
(-0.00888704 0.000157052 0)
(-0.00898581 0.000151117 0)
(-0.0090812 0.000144969 0)
(-0.00917302 0.000138604 0)
(-0.00926109 0.000132023 0)
(-0.00934523 0.000125224 0)
(-0.00942526 0.000118208 0)
(-0.00950097 0.000110974 0)
(-0.00957218 0.000103524 0)
(-0.00963869 9.58588e-05 0)
(-0.00970031 8.79796e-05 0)
(-0.00975684 7.98896e-05 0)
(-0.00980808 7.15922e-05 0)
(-0.00985383 6.30904e-05 0)
(-0.0098939 5.43888e-05 0)
(-0.00992808 4.54929e-05 0)
(-0.00995619 3.64076e-05 0)
(-0.00997802 2.71417e-05 0)
(-0.00999339 1.77001e-05 0)
(-0.0100021 8.09263e-06 0)
(4.70816e-07 -4.99347e-06 0)
(2.65134e-06 -1.35447e-05 0)
(6.90207e-06 -2.05601e-05 0)
(1.24773e-05 -2.59467e-05 0)
(1.8877e-05 -2.97146e-05 0)
(2.57399e-05 -3.19292e-05 0)
(3.27251e-05 -3.26866e-05 0)
(3.9503e-05 -3.21038e-05 0)
(4.57654e-05 -3.03045e-05 0)
(5.12269e-05 -2.74126e-05 0)
(5.56171e-05 -2.35504e-05 0)
(5.8689e-05 -1.88293e-05 0)
(6.02137e-05 -1.33558e-05 0)
(5.99798e-05 -7.2272e-06 0)
(5.77964e-05 -5.29056e-07 0)
(5.34883e-05 6.65743e-06 0)
(4.68974e-05 1.42606e-05 0)
(3.78823e-05 2.22169e-05 0)
(2.63144e-05 3.04669e-05 0)
(1.20793e-05 3.89588e-05 0)
(-4.92324e-06 4.7646e-05 0)
(-2.47837e-05 5.6485e-05 0)
(-4.75805e-05 6.54377e-05 0)
(-7.33807e-05 7.44703e-05 0)
(-0.000102244 8.35505e-05 0)
(-0.000134219 9.26504e-05 0)
(-0.000169348 0.000101746 0)
(-0.000207665 0.000110812 0)
(-0.000249196 0.000119829 0)
(-0.00029396 0.000128779 0)
(-0.000341973 0.000137644 0)
(-0.000393241 0.000146408 0)
(-0.000447767 0.000155059 0)
(-0.000505549 0.000163584 0)
(-0.000566579 0.000171971 0)
(-0.000630846 0.00018021 0)
(-0.000698334 0.000188293 0)
(-0.000769023 0.000196211 0)
(-0.00084289 0.000203957 0)
(-0.000919909 0.000211524 0)
(-0.00100005 0.000218907 0)
(-0.00108328 0.000226101 0)
(-0.00116956 0.000233101 0)
(-0.00125885 0.000239903 0)
(-0.00135112 0.000246505 0)
(-0.00144632 0.000252903 0)
(-0.00154441 0.000259095 0)
(-0.00164533 0.000265079 0)
(-0.00174904 0.000270854 0)
(-0.00185549 0.000276417 0)
(-0.00196463 0.000281769 0)
(-0.00207639 0.000286908 0)
(-0.00219073 0.000291834 0)
(-0.00230758 0.000296548 0)
(-0.00242689 0.000301047 0)
(-0.00254861 0.000305333 0)
(-0.00267265 0.000309407 0)
(-0.00279897 0.000313267 0)
(-0.0029275 0.000316915 0)
(-0.00305817 0.000320353 0)
(-0.00319093 0.000323579 0)
(-0.00332569 0.000326595 0)
(-0.00346239 0.000329403 0)
(-0.00360097 0.000332002 0)
(-0.00374135 0.000334394 0)
(-0.00388346 0.00033658 0)
(-0.00402723 0.00033856 0)
(-0.00417258 0.000340334 0)
(-0.00431944 0.000341905 0)
(-0.00446774 0.000343272 0)
(-0.00461739 0.000344435 0)
(-0.00476832 0.000345396 0)
(-0.00492044 0.000346154 0)
(-0.00507368 0.00034671 0)
(-0.00522796 0.000347063 0)
(-0.00538318 0.000347214 0)
(-0.00553926 0.000347161 0)
(-0.00569612 0.000346905 0)
(-0.00585366 0.000346445 0)
(-0.0060118 0.00034578 0)
(-0.00617044 0.000344909 0)
(-0.00632948 0.000343831 0)
(-0.00648883 0.000342545 0)
(-0.00664839 0.000341049 0)
(-0.00680806 0.000339342 0)
(-0.00696772 0.000337421 0)
(-0.00712728 0.000335284 0)
(-0.00728662 0.000332929 0)
(-0.00744563 0.000330354 0)
(-0.00760419 0.000327556 0)
(-0.00776218 0.000324531 0)
(-0.00791949 0.000321278 0)
(-0.00807598 0.000317791 0)
(-0.00823153 0.000314069 0)
(-0.008386 0.000310107 0)
(-0.00853925 0.000305902 0)
(-0.00869115 0.000301449 0)
(-0.00884155 0.000296746 0)
(-0.00899029 0.000291788 0)
(-0.00913723 0.000286571 0)
(-0.00928221 0.000281092 0)
(-0.00942506 0.000275345 0)
(-0.00956562 0.000269328 0)
(-0.00970372 0.000263037 0)
(-0.00983919 0.000256466 0)
(-0.00997183 0.000249614 0)
(-0.0101015 0.000242477 0)
(-0.0102279 0.000235051 0)
(-0.010351 0.000227333 0)
(-0.0104705 0.00021932 0)
(-0.0105862 0.00021101 0)
(-0.010698 0.000202401 0)
(-0.0108055 0.000193491 0)
(-0.0109086 0.000184279 0)
(-0.0110071 0.000174763 0)
(-0.0111008 0.000164945 0)
(-0.0111894 0.000154824 0)
(-0.0112727 0.000144401 0)
(-0.0113505 0.000133679 0)
(-0.0114225 0.000122659 0)
(-0.0114886 0.000111346 0)
(-0.0115485 9.97442e-05 0)
(-0.0116019 8.78584e-05 0)
(-0.0116486 7.56946e-05 0)
(-0.0116885 6.32611e-05 0)
(-0.0117212 5.05645e-05 0)
(-0.0117465 3.76164e-05 0)
(-0.0117643 2.44249e-05 0)
(-0.0117743 1.10028e-05 0)
(4.77783e-07 -6.43312e-06 0)
(2.68303e-06 -1.71067e-05 0)
(6.96075e-06 -2.56475e-05 0)
(1.25278e-05 -3.20639e-05 0)
(1.88425e-05 -3.64304e-05 0)
(2.5519e-05 -3.88544e-05 0)
(3.21898e-05 -3.94682e-05 0)
(3.85062e-05 -3.84163e-05 0)
(4.41448e-05 -3.58479e-05 0)
(4.88004e-05 -3.19139e-05 0)
(5.21907e-05 -2.67572e-05 0)
(5.40511e-05 -2.05146e-05 0)
(5.41356e-05 -1.33149e-05 0)
(5.22198e-05 -5.27436e-06 0)
(4.80953e-05 3.49763e-06 0)
(4.15707e-05 1.29027e-05 0)
(3.24742e-05 2.28518e-05 0)
(2.06482e-05 3.32624e-05 0)
(5.95003e-06 4.40608e-05 0)
(-1.17464e-05 5.51807e-05 0)
(-3.25561e-05 6.65608e-05 0)
(-5.65805e-05 7.81463e-05 0)
(-8.39079e-05 8.98885e-05 0)
(-0.000114618 0.000101741 0)
(-0.000148777 0.000113665 0)
(-0.000186443 0.000125621 0)
(-0.000227665 0.000137577 0)
(-0.000272485 0.000149503 0)
(-0.000320932 0.000161371 0)
(-0.000373033 0.000173155 0)
(-0.000428806 0.000184835 0)
(-0.00048826 0.000196388 0)
(-0.000551402 0.000207797 0)
(-0.000618231 0.000219044 0)
(-0.000688741 0.000230116 0)
(-0.00076292 0.000240997 0)
(-0.000840753 0.000251676 0)
(-0.000922219 0.000262142 0)
(-0.00100729 0.000272384 0)
(-0.00109595 0.000282395 0)
(-0.00118815 0.000292165 0)
(-0.00128387 0.000301688 0)
(-0.00138305 0.000310958 0)
(-0.00148567 0.00031997 0)
(-0.00159168 0.000328719 0)
(-0.00170102 0.000337201 0)
(-0.00181365 0.000345412 0)
(-0.00192952 0.000353349 0)
(-0.00204857 0.000361011 0)
(-0.00217074 0.000368396 0)
(-0.00229598 0.000375501 0)
(-0.00242421 0.000382326 0)
(-0.00255539 0.000388869 0)
(-0.00268945 0.000395131 0)
(-0.00282631 0.000401111 0)
(-0.00296591 0.000406809 0)
(-0.00310818 0.000412225 0)
(-0.00325306 0.00041736 0)
(-0.00340046 0.000422213 0)
(-0.00355031 0.000426785 0)
(-0.00370255 0.000431079 0)
(-0.00385708 0.000435094 0)
(-0.00401384 0.000438831 0)
(-0.00417274 0.000442292 0)
(-0.00433371 0.000445477 0)
(-0.00449666 0.000448387 0)
(-0.0046615 0.000451024 0)
(-0.00482817 0.000453388 0)
(-0.00499656 0.00045548 0)
(-0.00516659 0.0004573 0)
(-0.00533817 0.00045885 0)
(-0.00551122 0.000460129 0)
(-0.00568564 0.000461138 0)
(-0.00586134 0.000461877 0)
(-0.00603822 0.000462346 0)
(-0.00621618 0.000462544 0)
(-0.00639513 0.000462472 0)
(-0.00657497 0.000462127 0)
(-0.00675558 0.00046151 0)
(-0.00693688 0.00046062 0)
(-0.00711875 0.000459454 0)
(-0.00730108 0.000458012 0)
(-0.00748375 0.000456292 0)
(-0.00766666 0.000454291 0)
(-0.00784968 0.000452008 0)
(-0.0080327 0.00044944 0)
(-0.00821559 0.000446583 0)
(-0.00839823 0.000443435 0)
(-0.00858048 0.000439993 0)
(-0.0087622 0.000436252 0)
(-0.00894327 0.00043221 0)
(-0.00912355 0.000427862 0)
(-0.00930288 0.000423202 0)
(-0.00948111 0.000418228 0)
(-0.0096581 0.000412935 0)
(-0.00983368 0.000407316 0)
(-0.0100077 0.000401368 0)
(-0.01018 0.000395085 0)
(-0.0103504 0.000388463 0)
(-0.0105187 0.000381495 0)
(-0.0106847 0.000374178 0)
(-0.0108483 0.000366505 0)
(-0.0110093 0.000358471 0)
(-0.0111674 0.000350072 0)
(-0.0113225 0.000341302 0)
(-0.0114743 0.000332157 0)
(-0.0116227 0.000322633 0)
(-0.0117674 0.000312724 0)
(-0.0119083 0.000302427 0)
(-0.012045 0.000291739 0)
(-0.0121774 0.000280655 0)
(-0.0123052 0.000269174 0)
(-0.0124281 0.000257293 0)
(-0.0125461 0.000245011 0)
(-0.0126587 0.000232327 0)
(-0.0127657 0.00021924 0)
(-0.012867 0.000205752 0)
(-0.0129621 0.000191863 0)
(-0.013051 0.000177578 0)
(-0.0131332 0.000162898 0)
(-0.0132086 0.00014783 0)
(-0.0132769 0.000132378 0)
(-0.0133378 0.000116551 0)
(-0.013391 0.000100356 0)
(-0.0134364 8.38028e-05 0)
(-0.0134736 6.69021e-05 0)
(-0.0135023 4.96681e-05 0)
(-0.0135224 3.21128e-05 0)
(-0.0135335 1.42522e-05 0)
(4.68592e-07 -7.87079e-06 0)