/*--------------------------------*- C++ -*----------------------------------*\
| =========                 |                                                 |
| \\      /  F ield         | OpenFOAM: The Open Source CFD Toolbox           |
|  \\    /   O peration     | Version:  2112                                  |
|   \\  /    A nd           | Website:  www.openfoam.com                      |
|    \\/     M anipulation  |                                                 |
\*---------------------------------------------------------------------------*/
FoamFile
{
    version     2.0;
    format      ascii;
    arch        "LSB;label=32;scalar=64";
    class       volScalarField;
    location    "5.98";
    object      p;
}
// * * * * * * * * * * * * * * * * * * * * * * * * * * * * * * * * * * * * * //

dimensions      [0 2 -2 0 0 0 0];

internalField   nonuniform List<scalar> 
66564
(
-2.16742e-09
4.89293e-06
1.11899e-05
1.64354e-05
1.93399e-05
1.93946e-05
1.62937e-05
9.91861e-06
2.31581e-07
-1.27468e-05
-2.89394e-05
-4.82402e-05
-7.05098e-05
-9.5605e-05
-0.000123371
-0.000153659
-0.00018633
-0.000221215
-0.000258159
-0.000297013
-0.000337621
-0.000379834
-0.000423506
-0.000468492
-0.000514665
-0.000561891
-0.000610036
-0.00065897
-0.000708558
-0.000758666
-0.000809185
-0.000860014
-0.000911037
-0.000962155
-0.00101326
-0.00106424
-0.001115
-0.00116543
-0.00121544
-0.00126493
-0.00131382
-0.00136202
-0.00140945
-0.00145602
-0.00150168
-0.00154633
-0.00158989
-0.0016323
-0.00167349
-0.00171339
-0.00175192
-0.00178904
-0.00182467
-0.00185876
-0.00189125
-0.0019221
-0.00195123
-0.0019786
-0.00200415
-0.00202784
-0.00204959
-0.00206935
-0.0020871
-0.00210278
-0.00211634
-0.00212773
-0.0021369
-0.00214382
-0.00214843
-0.00215069
-0.00215056
-0.002148
-0.00214297
-0.00213542
-0.00212533
-0.00211265
-0.00209733
-0.00207934
-0.00205863
-0.00203515
-0.00200885
-0.00197971
-0.00194769
-0.00191272
-0.00187478
-0.00183383
-0.00178983
-0.00174274
-0.00169251
-0.0016391
-0.00158248
-0.00152261
-0.00145945
-0.00139295
-0.00132307
-0.0012498
-0.0011731
-0.00109291
-0.00100923
-0.000922021
-0.000831268
-0.000736938
-0.000639012
-0.000537472
-0.000432301
-0.000323483
-0.000211009
-9.487e-05
2.49334e-05
0.000148397
0.000275512
0.000406266
0.00054063
0.000678569
0.000820047
0.000965025
0.00111345
0.00126527
0.00142043
0.00157885
0.00174045
0.00190514
0.00207279
0.0022433
0.00241653
0.00259235
0.00277061
0.00295116
0.0031338
-2.58916e-06
2.19443e-06
6.89887e-06
1.03441e-05
1.18691e-05
1.09775e-05
7.36231e-06
8.6205e-07
-8.60784e-06
-2.10582e-05
-3.64632e-05
-5.47411e-05
-7.58107e-05
-9.95477e-05
-0.000125816
-0.0001545
-0.000185464
-0.000218571
-0.000253682
-0.000290648
-0.000329337
-0.000369604
-0.000411311
-0.000454331
-0.000498527
-0.000543767
-0.000589932
-0.0006369
-0.000684543
-0.000732743
-0.000781383
-0.000830351
-0.000879542
-0.000928855
-0.000978184
-0.00102742
-0.00107648
-0.00112525
-0.00117365
-0.00122157
-0.00126893
-0.00131564
-0.00136163
-0.0014068
-0.0014511
-0.00149443
-0.00153672
-0.00157791
-0.00161792
-0.00165668
-0.00169414
-0.00173022
-0.00176487
-0.00179802
-0.00182961
-0.0018596
-0.00188792
-0.00191452
-0.00193936
-0.00196237
-0.00198349
-0.00200268
-0.00201989
-0.00203507
-0.00204816
-0.00205914
-0.00206794
-0.00207452
-0.00207883
-0.00208084
-0.00208051
-0.00207778
-0.00207263
-0.00206501
-0.00205488
-0.0020422
-0.00202691
-0.002009
-0.00198841
-0.00196509
-0.00193899
-0.00191009
-0.00187834
-0.00184371
-0.00180614
-0.00176559
-0.00172205
-0.00167545
-0.00162577
-0.00157294
-0.00151695
-0.00145774
-0.00139529
-0.00132956
-0.0012605
-0.00118809
-0.00111229
-0.00103306
-0.000950392
-0.00086425
-0.000774609
-0.000681445
-0.000584738
-0.000484472
-0.00038063
-0.000273192
-0.000162154
-4.75136e-05
7.07328e-05
0.000192584
0.000318028
0.00044705
0.00057962
0.000715705
0.000855269
0.000998272
0.00114467
0.00129439
0.00144739
0.00160361
0.00176294
0.0019253
0.00209056
0.00225863
0.00242937
0.00260265
0.00277831
0.00295621
0.00313617
-5.60267e-06
4.78347e-09
4.26376e-06
6.86335e-06
7.63588e-06
6.20089e-06
2.27032e-06
-4.30732e-06
-1.36136e-05
-2.56846e-05
-4.04967e-05
-5.80036e-05
-7.8145e-05
-0.000100814
-0.000125909
-0.000153306
-0.000182895
-0.000214556
-0.000248153
-0.000283561
-0.000320647
-0.000359276
-0.000399328
-0.000440677
-0.000483187
-0.000526735
-0.000571202
-0.000616467
-0.000662424
-0.000708954
-0.000755942
-0.000803275
-0.000850856
-0.000898571
-0.000946325
-0.000994018
-0.00104155
-0.00108884
-0.00113577
-0.00118227
-0.00122825
-0.00127361
-0.00131828
-0.00136218
-0.00140522
-0.00144734
-0.00148846
-0.00152852
-0.00156743
-0.00160513
-0.00164157
-0.00167668
-0.00171039
-0.00174265
-0.00177339
-0.00180257
-0.00183012
-0.00185599
-0.00188012
-0.00190248
-0.00192298
-0.0019416
-0.00195828
-0.00197296
-0.00198559
-0.00199615
-0.00200456
-0.0020108
-0.0020148
-0.00201655
-0.00201599
-0.00201307
-0.00200777
-0.00200004
-0.00198984
-0.00197712
-0.00196184
-0.00194396
-0.00192344
-0.00190024
-0.00187429
-0.00184558
-0.00181407
-0.00177971
-0.00174245
-0.00170226
-0.00165911
-0.00161295
-0.00156374
-0.00151143
-0.001456
-0.00139739
-0.00133559
-0.00127054
-0.00120222
-0.00113059
-0.00105562
-0.00097728
-0.000895539
-0.000810375
-0.00072176
-0.00062967
-0.000534089
-0.000435002
-0.000332391
-0.000226234
-0.000116531
-3.28372e-06
0.000113513
0.00023386
0.000357745
0.000485149
0.000616044
0.000750396
0.00088817
0.00102933
0.00117381
0.00132158
0.00147256
0.0016267
0.0017839
0.00194407
0.0021071
0.00227288
0.00244127
0.00261216
0.00278538
0.00296079
0.00313822
-7.93905e-06
-1.14298e-06
3.3524e-06
5.70517e-06
6.16229e-06
4.45972e-06
3.73228e-07
-6.21579e-06
-1.53882e-05
-2.71611e-05
-4.15202e-05
-5.8432e-05
-7.78269e-05
-9.96443e-05
-0.000123783
-0.000150134
-0.000178599
-0.000209055
-0.000241393
-0.000275492
-0.000311218
-0.000348458
-0.000387094
-0.000427
-0.000468063
-0.000510157
-0.000553159
-0.000596956
-0.000641447
-0.000686514
-0.000732049
-0.000777953
-0.000824109
-0.000870424
-0.000916793
-0.000963121
-0.00100931
-0.00105527
-0.00110092
-0.00114615
-0.00119088
-0.00123504
-0.00127853
-0.00132128
-0.00136321
-0.00140425
-0.00144432
-0.00148335
-0.00152127
-0.00155803
-0.00159355
-0.00162778
-0.00166064
-0.00169209
-0.00172207
-0.00175051
-0.00177736
-0.00180258
-0.00182609
-0.00184784
-0.00186779
-0.00188589
-0.00190208
-0.0019163
-0.00192852
-0.00193869
-0.00194676
-0.00195267
-0.00195641
-0.00195792
-0.00195715
-0.00195407
-0.00194863
-0.0019408
-0.00193054
-0.00191779
-0.00190251
-0.00188467
-0.00186422
-0.00184113
-0.00181533
-0.0017868
-0.0017555
-0.00172139
-0.00168443
-0.00164458
-0.00160179
-0.00155603
-0.00150725
-0.00145542
-0.00140051
-0.00134246
-0.00128125
-0.00121684
-0.0011492
-0.0010783
-0.0010041
-0.00092657
-0.000845686
-0.000761422
-0.000673751
-0.00058265
-0.000488106
-0.000390102
-0.00028862
-0.00018364
-7.5165e-05
3.68044e-05
0.000152273
0.000271243
0.000393698
0.000519619
0.000648981
0.00078175
0.000917888
0.00105735
0.0012001
0.00134608
0.00149522
0.00164747
0.00180273
0.00196091
0.0021219
0.00228559
0.00245186
0.00262057
0.00279157
0.00296473
0.00313986
-8.65707e-06
-7.50129e-07
4.16073e-06
6.49943e-06
6.82222e-06
4.97544e-06
8.01678e-07
-5.78222e-06
-1.48218e-05
-2.63335e-05
-4.0312e-05
-5.67025e-05
-7.54618e-05
-9.65231e-05
-0.000119805
-0.000145224
-0.000172667
-0.000202034
-0.00023322
-0.000266107
-0.000300583
-0.00033654
-0.000373855
-0.000412416
-0.000452113
-0.000492829
-0.000534452
-0.000576869
-0.000619972
-0.000663652
-0.000707807
-0.000752341
-0.000797137
-0.000842107
-0.000887148
-0.000932164
-0.000977066
-0.00102176
-0.00106615
-0.00111016
-0.0011537
-0.00119668
-0.00123903
-0.00128067
-0.00132152
-0.0013615
-0.00140055
-0.0014386
-0.00147556
-0.00151139
-0.00154602
-0.00157939
-0.00161143
-0.0016421
-0.00167132
-0.00169904
-0.00172522
-0.00174979
-0.00177269
-0.00179387
-0.00181327
-0.00183086
-0.00184657
-0.00186036
-0.00187217
-0.00188197
-0.0018897
-0.00189531
-0.00189879
-0.00190007
-0.00189911
-0.00189587
-0.00189031
-0.00188239
-0.00187206
-0.00185929
-0.00184403
-0.00182624
-0.00180587
-0.00178288
-0.00175725
-0.00172891
-0.00169783
-0.00166398
-0.00162731
-0.0015878
-0.00154538
-0.00150002
-0.00145169
-0.00140034
-0.00134595
-0.00128846
-0.00122785
-0.00116409
-0.00109714
-0.00102696
-0.000953527
-0.000876808
-0.000796779
-0.000713413
-0.000626681
-0.000536567
-0.000443054
-0.000346125
-0.000245764
-0.000141957
-3.47012e-05
7.60021e-05
0.000190156
0.000307762
0.000428803
0.000553259
0.000681106
0.000812312
0.000946837
0.00108464
0.00122567
0.00136989
0.00151722
0.00166761
0.00182097
0.0019772
0.00213619
0.00229784
0.00246202
0.0026286
0.00279743
0.00296838
0.00314128
-6.92833e-06
1.78778e-06
7.05261e-06
9.442e-06
9.70407e-06
7.7728e-06
3.53519e-06
-3.03604e-06
-1.19687e-05
-2.32686e-05
-3.69131e-05
-5.28711e-05
-7.10847e-05
-9.14917e-05
-0.000114029
-0.00013861
-0.000165142
-0.000193529
-0.000223661
-0.00025544
-0.000288766
-0.000323529
-0.000359622
-0.000396936
-0.000435354
-0.000474773
-0.000515092
-0.000556196
-0.000597984
-0.000640351
-0.000683192
-0.000726411
-0.000769911
-0.000813586
-0.000857345
-0.000901097
-0.000944748
-0.000988209
-0.00103139
-0.00107421
-0.00111659
-0.00115843
-0.00119967
-0.00124022
-0.00128001
-0.00131897
-0.00135701
-0.00139408
-0.00143011
-0.00146503
-0.00149879
-0.00153131
-0.00156254
-0.00159243
-0.0016209
-0.00164792
-0.00167342
-0.00169735
-0.00171964
-0.00174025
-0.00175912
-0.00177621
-0.00179144
-0.00180479
-0.0018162
-0.00182563
-0.00183302
-0.00183834
-0.00184156
-0.0018426
-0.00184145
-0.00183805
-0.00183238
-0.00182437
-0.00181398
-0.00180119
-0.00178594
-0.0017682
-0.00174791
-0.00172504
-0.00169956
-0.00167141
-0.00164056
-0.00160696
-0.00157059
-0.00153141
-0.00148936
-0.00144441
-0.00139653
-0.00134567
-0.0012918
-0.00123488
-0.00117487
-0.00111175
-0.00104549
-0.000976042
-0.000903379
-0.000827475
-0.000748303
-0.000665833
-0.000580042
-0.000490917
-0.000398439
-0.000302587
-0.000203347
-0.000100712
5.32246e-06
0.000114759
0.000227601
0.000343846
0.000463477
0.000586472
0.00071281
0.000842459
0.000975377
0.00111152
0.00125085
0.00139331
0.00153885
0.00168739
0.00183885
0.00199314
0.00215015
0.00230978
0.00247189
0.00263636
0.00280305
0.00297181
0.00314249
-2.31318e-06
6.85864e-06
1.23203e-05
1.47255e-05
1.49333e-05
1.29158e-05
8.61536e-06
2.03198e-06
-6.83752e-06
-1.79744e-05
-3.13573e-05
-4.6957e-05
-6.47146e-05
-8.45754e-05
-0.000106467
-0.000130317
-0.00015605
-0.000183562
-0.000212755
-0.000243541
-0.000275819
-0.000309491
-0.000344463
-0.000380621
-0.000417861
-0.000456082
-0.000495181
-0.000535054
-0.000575606
-0.000616734
-0.000658336
-0.000700314
-0.000742578
-0.000785024
-0.000827563
-0.000870106
-0.000912561
-0.000954839
-0.000996859
-0.00103853
-0.00107978
-0.00112053
-0.00116069
-0.00120019
-0.00123895
-0.00127691
-0.00131398
-0.0013501
-0.00138522
-0.00141926
-0.00145215
-0.00148385
-0.00151429
-0.00154341
-0.00157116
-0.00159749
-0.00162232
-0.00164562
-0.00166731
-0.00168736
-0.0017057
-0.00172229
-0.00173706
-0.00174998
-0.00176099
-0.00177005
-0.00177712
-0.00178215
-0.0017851
-0.00178592
-0.00178457
-0.00178102
-0.00177522
-0.00176712
-0.00175668
-0.00174387
-0.00172864
-0.00171094
-0.00169074
-0.00166798
-0.00164265
-0.00161469
-0.00158406
-0.00155072
-0.00151465
-0.0014758
-0.00143412
-0.00138958
-0.00134214
-0.00129177
-0.00123842
-0.00118206
-0.00112266
-0.00106019
-0.000994609
-0.000925883
-0.000853987
-0.000778893
-0.00070057
-0.000618991
-0.000534137
-0.000445996
-0.000354548
-0.000259766
-0.000161643
-6.01745e-05
4.46466e-05
0.000152828
0.000264369
0.000379263
0.000497495
0.000619044
0.000743888
0.000871995
0.00100332
0.00113783
0.00127547
0.0014162
0.00155996
0.00170668
0.00185627
0.00200865
0.00216371
0.00232133
0.00248141
0.00264381
0.00280838
0.00297499
0.00314348
5.40406e-06
1.46711e-05
2.01436e-05
2.24697e-05
2.25542e-05
2.04159e-05
1.60181e-05
9.37937e-06
5.2807e-07
-1.05141e-05
-2.37109e-05
-3.90263e-05
-5.64196e-05
-7.5824e-05
-9.71714e-05
-0.000120398
-0.000145423
-0.000172159
-0.000200523
-0.000230421
-0.000261758
-0.000294447
-0.000328391
-0.000363486
-0.000399639
-0.00043675
-0.000474719
-0.000513447
-0.000552843
-0.000592806
-0.000633237
-0.000674049
-0.000715139
-0.00075642
-0.000797801
-0.00083919
-0.000880504
-0.000921653
-0.000962556
-0.00100313
-0.0010433
-0.00108299
-0.00112211
-0.00116059
-0.00119836
-0.00123534
-0.00127147
-0.00130669
-0.00134091
-0.00137409
-0.00140616
-0.00143706
-0.00146672
-0.0014951
-0.00152214
-0.00154778
-0.00157196
-0.00159463
-0.00161575
-0.00163525
-0.00165307
-0.00166916
-0.00168348
-0.00169598
-0.0017066
-0.00171531
-0.00172205
-0.00172679
-0.00172948
-0.00173008
-0.00172855
-0.00172484
-0.00171891
-0.00171073
-0.00170024
-0.00168741
-0.00167219
-0.00165454
-0.00163443
-0.00161179
-0.00158661
-0.00155883
-0.00152842
-0.00149534
-0.00145956
-0.00142104
-0.00137973
-0.0013356
-0.00128861
-0.00123872
-0.0011859
-0.00113011
-0.00107131
-0.00100948
-0.000944577
-0.000876572
-0.000805438
-0.000731146
-0.000653667
-0.000572976
-0.000489055
-0.00040189
-0.000311463
-0.000217749
-0.000120738
-2.04251e-05
8.31949e-05
0.000190131
0.000300383
0.000413942
0.00053079
0.000650909
0.000774275
0.000900856
0.00103061
0.0011635
0.00129947
0.0014385
0.00158051
0.00172543
0.00187318
0.00202367
0.00217681
0.00233247
0.00249055
0.0026509
0.0028134
0.0029779
0.00314424
1.63047e-05
2.53354e-05
3.06107e-05
3.27291e-05
3.26045e-05
3.02697e-05
2.57073e-05
1.89637e-05
1.00693e-05
-9.42793e-07
-1.4028e-05
-2.9148e-05
-4.62548e-05
-6.52891e-05
-8.6191e-05
-0.000108888
-0.000133303
-0.000159365
-0.000186991
-0.000216097
-0.000246599
-0.0002784
-0.00031141
-0.000345539
-0.000380694
-0.000416778
-0.000453699
-0.000491363
-0.000529677
-0.00056855
-0.000607883
-0.00064759
-0.000687575
-0.000727752
-0.000768032
-0.000808327
-0.000848552
-0.000888623
-0.000928459
-0.000967983
-0.00100711
-0.00104578
-0.00108389
-0.0011214
-0.0011582
-0.00119425
-0.00122947
-0.0012638
-0.00129717
-0.00132951
-0.00136077
-0.00139089
-0.0014198
-0.00144745
-0.0014738
-0.00149877
-0.00152232
-0.00154439
-0.00156493
-0.00158388
-0.00160119
-0.00161681
-0.00163069
-0.00164277
-0.00165301
-0.00166137
-0.00166779
-0.00167225
-0.00167469
-0.00167507
-0.00167335
-0.00166949
-0.00166344
-0.00165517
-0.00164464
-0.00163179
-0.00161659
-0.00159899
-0.00157896
-0.00155645
-0.00153141
-0.00150382
-0.00147363
-0.00144081
-0.00140532
-0.00136713
-0.00132618
-0.00128247
-0.00123593
-0.00118653
-0.00113422
-0.00107899
-0.0010208
-0.000959609
-0.000895383
-0.000828095
-0.00075772
-0.000684226
-0.000607587
-0.000527779
-0.000444787
-0.000358593
-0.00026918
-0.000176527
-8.06208e-05
1.8544e-05
0.000120973
0.000226677
0.000335652
0.000447886
0.000563364
0.000682068
0.000803973
0.000929046
0.00105725
0.00118853
0.00132287
0.00146021
0.00160048
0.00174363
0.00188957
0.00203822
0.00218946
0.0023432
0.0024993
0.00265765
0.00281811
0.00298054
0.00314478
3.03872e-05
3.88945e-05
4.37568e-05
4.55374e-05
4.50952e-05
4.24711e-05
3.76699e-05
3.07432e-05
2.17355e-05
1.06859e-05
-2.36456e-06
-1.73684e-05
-3.42697e-05
-5.30253e-05
-7.35657e-05
-9.58227e-05
-0.00011973
-0.000145213
-0.000172196
-0.000200606
-0.00023036
-0.000261365
-0.000293537
-0.00032679
-0.000361031
-0.000396173
-0.000432128
-0.000468804
-0.00050611
-0.000543962
-0.000582268
-0.000620933
-0.000659879
-0.000699013
-0.00073825
-0.000777505
-0.000816696
-0.000855741
-0.000894559
-0.000933076
-0.000971212
-0.00100889
-0.00104605
-0.00108261
-0.00111849
-0.00115363
-0.00118797
-0.00122144
-0.00125397
-0.00128551
-0.00131599
-0.00134534
-0.00137352
-0.00140047
-0.00142614
-0.00145046
-0.00147339
-0.00149487
-0.00151485
-0.00153327
-0.00155008
-0.00156523
-0.00157867
-0.00159035
-0.00160021
-0.00160823
-0.00161435
-0.00161852
-0.00162071
-0.00162088
-0.00161898
-0.00161497
-0.00160881
-0.00160045
-0.00158987
-0.00157701
-0.00156182
-0.00154428
-0.00152434
-0.00150194
-0.00147706
-0.00144965
-0.00141969
-0.00138713
-0.00135193
-0.00131406
-0.00127349
-0.00123018
-0.00118409
-0.00113517
-0.0010834
-0.00102873
-0.000971135
-0.000910575
-0.000847024
-0.000780455
-0.000710835
-0.000638135
-0.00056233
-0.000483405
-0.000401339
-0.00031611
-0.000227703
-0.000136103
-4.12945e-05
5.67315e-05
0.000157982
0.000262464
0.000370172
0.000481094
0.000595215
0.00071252
0.000832979
0.000956559
0.00108322
0.00121293
0.00134565
0.00148133
0.0016199
0.0017613
0.00190545
0.00205228
0.00220166
0.0023535
0.00250766
0.00266404
0.0028225
0.0029829
0.00314507
4.7621e-05
5.53345e-05
5.96003e-05
6.08947e-05
6.00109e-05
5.70062e-05
5.18766e-05
4.46839e-05
3.54867e-05
2.43166e-05
1.12263e-05
-3.73643e-06
-2.05248e-05
-3.90801e-05
-5.93413e-05
-8.12482e-05
-0.000104736
-0.000129733
-0.000156171
-0.000183978
-0.000213069
-0.000243366
-0.000274788
-0.000307248
-0.000340661
-0.000374944
-0.00041001
-0.000445773
-0.000482148
-0.000519047
-0.000556388
-0.000594082
-0.000632048
-0.000670199
-0.000708453
-0.000746724
-0.000784934
-0.000823003
-0.000860854
-0.000898409
-0.000935595
-0.00097234
-0.00100857
-0.00104422
-0.00107921
-0.00111348
-0.00114697
-0.0011796
-0.00121133
-0.00124208
-0.0012718
-0.00130042
-0.0013279
-0.00135416
-0.00137917
-0.00140286
-0.00142518
-0.00144608
-0.00146551
-0.00148341
-0.00149974
-0.00151443
-0.00152745
-0.00153872
-0.00154822
-0.0015559
-0.00156172
-0.00156562
-0.00156757
-0.00156753
-0.00156545
-0.00156129
-0.00155502
-0.00154658
-0.00153595
-0.00152308
-0.00150792
-0.00149043
-0.00147057
-0.00144829
-0.00142357
-0.00139635
-0.00136661
-0.0013343
-0.0012994
-0.00126187
-0.00122167
-0.00117877
-0.00113312
-0.00108468
-0.00103343
-0.000979317
-0.000922318
-0.000862392
-0.000799515
-0.000733662
-0.000664796
-0.000592887
-0.000517917
-0.000439869
-0.000358723
-0.000274453
-0.000187047
-9.64909e-05
-2.77033e-06
9.41281e-05
0.000194211
0.000297481
0.000403932
0.000513553
0.00062633
0.000742249
0.000861278
0.000983382
0.00110853
0.00123668
0.0013678
0.00150184
0.00163873
0.00177842
0.00192081
0.00206584
0.0022134
0.00236336
0.00251563
0.00267007
0.00282657
0.00298496
0.00314511
6.79173e-05
7.46282e-05
7.81108e-05
7.87746e-05
7.73349e-05
7.38367e-05
6.82897e-05
6.07499e-05
5.12714e-05
3.99047e-05
2.66976e-05
1.16912e-05
-5.06033e-06
-2.34977e-05
-4.35672e-05
-6.52106e-05
-8.83651e-05
-0.000112967
-0.000138948
-0.000166235
-0.000194754
-0.000224432
-0.000255186
-0.000286934
-0.000319602
-0.000353103
-0.000387354
-0.000422278
-0.00045779
-0.000493808
-0.000530248
-0.000567035
-0.000604083
-0.000641311
-0.000678637
-0.00071598
-0.000753262
-0.000790407
-0.000827337
-0.000863979
-0.00090026
-0.000936109
-0.000971453
-0.00100622
-0.00104036
-0.00107379
-0.00110646
-0.00113829
-0.00116924
-0.00119924
-0.00122822
-0.00125613
-0.00128292
-0.00130852
-0.00133289
-0.00135596
-0.0013777
-0.00139804
-0.00141694
-0.00143433
-0.00145018
-0.00146442
-0.00147701
-0.0014879
-0.00149705
-0.0015044
-0.00150991
-0.00151355
-0.00151526
-0.00151502
-0.00151276
-0.00150847
-0.00150208
-0.00149358
-0.0014829
-0.00147001
-0.00145487
-0.00143744
-0.00141766
-0.00139551
-0.00137094
-0.00134392
-0.0013144
-0.00128236
-0.00124775
-0.00121056
-0.00117073
-0.00112823
-0.00108302
-0.00103506
-0.000984327
-0.000930773
-0.000874366
-0.000815073
-0.00075287
-0.00068773
-0.000619617
-0.000548501
-0.000474362
-0.000397187
-0.000316953
-0.000233637
-0.000147223
-5.7702e-05
3.49407e-05
0.000130721
0.000229645
0.000331713
0.000436918
0.00054525
0.000656696
0.000771242
0.000888857
0.00100951
0.00113315
0.00125977
0.00138932
0.00152174
0.00165698
0.00179497
0.00193564
0.0020789
0.00222465
0.00237278
0.00252318
0.00267572
0.00283029
0.00298673
0.00314489
9.11713e-05
9.66866e-05
9.92375e-05
9.91468e-05
9.70226e-05
9.29243e-05
8.68647e-05
7.8887e-05
6.90493e-05
5.7403e-05
4.39915e-05
2.88632e-05
1.20721e-05
-6.33245e-06
-2.62939e-05
-4.77559e-05
-7.0664e-05
-9.49555e-05
-0.000120562
-0.000147412
-0.000175445
-0.000204583
-0.000234749
-0.000265869
-0.000297866
-0.00033066
-0.000364174
-0.00039833
-0.000433046
-0.00046825
-0.000503859
-0.000539798
-0.000575988
-0.000612351
-0.000648805
-0.000685274
-0.000721681
-0.000757951
-0.000794009
-0.000829783
-0.000865205
-0.000900199
-0.000934696
-0.000968634
-0.00100195
-0.00103457
-0.00106645
-0.00109751
-0.00112771
-0.00115697
-0.00118524
-0.00121247
-0.00123859
-0.00126355
-0.0012873
-0.00130978
-0.00133095
-0.00135074
-0.00136912
-0.00138602
-0.0014014
-0.0014152
-0.00142738
-0.00143789
-0.00144669
-0.00145372
-0.00145894
-0.00146232
-0.00146381
-0.00146336
-0.00146094
-0.0014565
-0.00145002
-0.00144144
-0.00143071
-0.00141781
-0.0014027
-0.00138532
-0.00136564
-0.00134361
-0.0013192
-0.00129238
-0.00126309
-0.00123131
-0.001197
-0.00116014
-0.00112068
-0.00107858
-0.00103381
-0.000986336
-0.000936114
-0.000883111
-0.000827295
-0.000768636
-0.000707108
-0.000642679
-0.000575315
-0.00050499
-0.000431682
-0.000355374
-0.000276045
-0.000193674
-0.000108246
-1.97515e-05
7.18234e-05
0.000166495
0.00026427
0.000365145
0.000469114
0.000576169
0.000686299
0.000799486
0.000915702
0.00103491
0.00115709
0.00128219
0.00141019
0.00154102
0.00167462
0.00181095
0.00194992
0.00209144
0.00223542
0.00238174
0.0025303
0.00268098
0.00283365
0.00298817
0.00314439
0.000117247
0.000121414
0.000122898
0.000121933
0.000119025
0.000114222
0.000107547
9.90468e-05
8.87682e-05
7.67549e-05
6.3059e-05
4.77316e-05
3.08167e-05
1.2364e-05
-7.57078e-06
-2.8936e-05
-5.16795e-05
-7.57376e-05
-0.000101048
-0.000127547
-0.00015517
-0.000183846
-0.000213504
-0.000244071
-0.000275473
-0.000307634
-0.000340481
-0.000373938
-0.000407931
-0.000442383
-0.000477228
-0.000512381
-0.000547773
-0.000583325
-0.000618963
-0.00065461
-0.000690193
-0.000725637
-0.000760871
-0.000795825
-0.000830428
-0.000864608
-0.000898301
-0.000931444
-0.000963971
-0.000995823
-0.00102694
-0.00105727
-0.00108674
-0.00111529
-0.00114288
-0.00116944
-0.00119492
-0.00121926
-0.00124241
-0.00126432
-0.00128493
-0.00130419
-0.00132206
-0.00133849
-0.00135341
-0.00136678
-0.00137856
-0.0013887
-0.00139716
-0.00140387
-0.00140881
-0.00141194
-0.0014132
-0.00141257
-0.00140998
-0.00140542
-0.00139883
-0.00139017
-0.00137941
-0.0013665
-0.00135142
-0.0013341
-0.00131451
-0.00129261
-0.00126836
-0.00124173
-0.00121268
-0.00118116
-0.00114716
-0.00111063
-0.00107154
-0.00102985
-0.000985514
-0.000938513
-0.000888804
-0.000836351
-0.000781126
-0.000723101
-0.000662246
-0.000598525
-0.000531907
-0.00046237
-0.00038989
-0.000314444
-0.000236012
-0.000154579
-7.01313e-05
1.73443e-05
0.000107862
0.000201435
0.000298068
0.000397758
0.000500503
0.000606296
0.000715124
0.000826967
0.000941802
0.0010596
0.00118032
0.00130393
0.00143039
0.00155965
0.00169165
0.00182634
0.00196363
0.00210345
0.00224568
0.00239023
0.00253699
0.00268584
0.00283665
0.00298929
0.0031436
0.000146022
0.0001487
0.000148992
0.000147054
0.000143262
0.000137662
0.000130281
0.000121169
0.000110361
9.79036e-05
8.38475e-05
6.82378e-05
5.1119e-05
3.25398e-05
1.25495e-05
-8.79984e-06
-3.14517e-05
-5.53535e-05
-8.04483e-05
-0.000106673
-0.000133961
-0.000162251
-0.000191476
-0.000221562
-0.00025244
-0.000284043
-0.000316292
-0.000349118
-0.000382454
-0.000416225
-0.000450364
-0.000484795
-0.000519448
-0.000554246
-0.00058912
-0.000623996
-0.000658803
-0.000693469
-0.000727926
-0.000762103
-0.00079593
-0.00082934
-0.000862269
-0.000894655
-0.000926434
-0.000957552
-0.000987949
-0.00101756
-0.00104633
-0.00107421
-0.00110114
-0.00112706
-0.00115192
-0.00117566
-0.00119823
-0.00121958
-0.00123965
-0.0012584
-0.00127578
-0.00129173
-0.00130622
-0.00131918
-0.00133057
-0.00134034
-0.00134846
-0.00135487
-0.00135954
-0.00136242
-0.00136347
-0.00136264
-0.00135991
-0.00135521
-0.00134852
-0.0013398
-0.00132901
-0.0013161
-0.00130104
-0.00128378
-0.00126429
-0.00124252
-0.00121844
-0.00119201
-0.00116318
-0.00113194
-0.00109824
-0.00106204
-0.00102332
-0.00098203
-0.000938139
-0.000891613
-0.000842417
-0.000790515
-0.000735881
-0.000678488
-0.000618301
-0.000555286
-0.000489412
-0.000420658
-0.000348999
-0.000274409
-0.000196869
-0.000116369
-3.28949e-05
5.35692e-05
0.000143038
0.00023552
0.000331019
0.000429535
0.000531069
0.000635614
0.000743154
0.00085367
0.000967142
0.00108354
0.00120283
0.00132497
0.00144992
0.00157763
0.00170805
0.00184112
0.00197677
0.0021149
0.00225542
0.00239822
0.00254322
0.00269027
0.00283926
0.00299006
0.0031425
0.000177354
0.000178427
0.00017742
0.000174405
0.000169637
0.000163158
0.000154992
0.00014518
0.000133763
0.000120786
0.000106291
9.03219e-05
7.29242e-05
5.41394e-05
3.40163e-05
1.26104e-05
-1.00265e-05
-3.38481e-05
-5.88008e-05
-8.482e-05
-0.000111849
-0.000139828
-0.00016869
-0.000198367
-0.000228794
-0.000259903
-0.000291624
-0.000323891
-0.000356634
-0.00038979
-0.000423284
-0.000457052
-0.000491022
-0.000525124
-0.000559287
-0.000593443
-0.000627522
-0.000661458
-0.000695182
-0.000728624
-0.000761717
-0.0007944
-0.000826606
-0.000858273
-0.000889344
-0.000919763
-0.000949469
-0.000978401
-0.00100651
-0.00103373
-0.00106003
-0.00108532
-0.00110958
-0.00113274
-0.00115475
-0.00117555
-0.00119511
-0.00121337
-0.00123027
-0.00124577
-0.00125982
-0.00127238
-0.0012834
-0.00129282
-0.00130061
-0.00130673
-0.00131114
-0.00131378
-0.00131461
-0.0013136
-0.00131072
-0.0013059
-0.00129912
-0.00129034
-0.00127951
-0.00126661
-0.00125158
-0.00123439
-0.001215
-0.00119336
-0.00116945
-0.00114321
-0.00111462
-0.00108365
-0.00105025
-0.00101439
-0.000976039
-0.000935156
-0.000891707
-0.000845658
-0.000796974
-0.000745624
-0.000691581
-0.000634816
-0.000575294
-0.00051298
-0.000447847
-0.000379869
-0.000309025
-0.000235286
-0.000158635
-7.90616e-05
3.44413e-06
8.89031e-05
0.000177329
0.000268728
0.000363103
0.000460458
0.000560794
0.000664104
0.000770372
0.000879579
0.000991706
0.00110672
0.0012246
0.00134528
0.00146874
0.00159494
0.0017238
0.00185528
0.0019893
0.00212578
0.00226461
0.00240571
0.00254897
0.00269427
0.00284148
0.00299046
0.00314108
0.000211098
0.000210472
0.000208073
0.000203895
0.000198068
0.000190625
0.00018159
0.000171004
0.000158907
0.000145332
0.000130321
0.00011392
9.61682e-05
7.7106e-05
5.67833e-05
3.52502e-05
1.25514e-05
-1.12634e-05
-3.61428e-05
-6.20315e-05
-8.88738e-05
-0.00011661
-0.000145179
-0.000174518
-0.000204561
-0.000235243
-0.000266501
-0.000298275
-0.000330492
-0.000363093
-0.000396008
-0.000429172
-0.000462516
-0.000495974
-0.000529479
-0.000562963
-0.000596363
-0.000629615
-0.000662649
-0.0006954
-0.000727804
-0.000759798
-0.000791319
-0.000822308
-0.000852708
-0.000882461
-0.000911507
-0.00093979
-0.000967261
-0.000993864
-0.00101954
-0.00104424
-0.00106792
-0.00109052
-0.00111199
-0.00113227
-0.00115132
-0.0011691
-0.00118555
-0.00120061
-0.00121425
-0.00122642
-0.00123707
-0.00124615
-0.00125363
-0.00125946
-0.00126361
-0.00126601
-0.00126664
-0.00126546
-0.00126243
-0.0012575
-0.00125063
-0.00124179
-0.00123095
-0.00121805
-0.00120306
-0.00118594
-0.00116665
-0.00114515
-0.0011214
-0.00109537
-0.00106702
-0.00103631
-0.00100322
-0.0009677
-0.000929718
-0.000889245
-0.000846242
-0.000800669
-0.000752498
-0.000701701
-0.000648248
-0.000592106
-0.000533242
-0.000471626
-0.000407228
-0.000340023
-0.000269987
-0.000197095
-0.000121328
-4.26796e-05
3.88644e-05
0.000123325
0.000210715
0.000301039
0.000394301
0.000490507
0.000589659
0.000691749
0.000796762
0.000904677
0.00101548
0.00112913
0.00124561
0.00136486
0.00148685
0.00161154
0.00173888
0.0018688
0.00200122
0.00213607
0.00227326
0.00241268
0.00255424
0.00269781
0.00284327
0.00299049
0.00313933
0.000247107
0.0002447
0.000240835
0.000235426
0.00022846
0.000219973
0.000209995
0.000198565
0.00018571
0.000171466
0.000155872
0.000138966
0.000120789
0.000101384
8.07963e-05
5.90631e-05
3.62343e-05
1.2358e-05
-1.25213e-05
-3.83503e-05
-6.50726e-05
-9.2634e-05
-0.000120979
-0.000150045
-0.000179768
-0.000210092
-0.000240955
-0.000272295
-0.000304051
-0.000336157
-0.000368552
-0.000401169
-0.000433943
-0.000466812
-0.00049971
-0.000532574
-0.000565345
-0.000597956
-0.000630344
-0.000662447
-0.000694203
-0.000725547
-0.000756421
-0.000786771
-0.000816535
-0.000845654
-0.000874073
-0.00090174
-0.000928603
-0.000954606
-0.000979696
-0.00100383
-0.00102695
-0.001049
-0.00106995
-0.00108973
-0.0011083
-0.00112561
-0.00114161
-0.00115626
-0.0011695
-0.00118129
-0.00119159
-0.00120035
-0.00120752
-0.00121308
-0.00121697
-0.00121915
-0.00121958
-0.00121824
-0.00121506
-0.00121002
-0.00120308
-0.00119419
-0.00118333
-0.00117045
-0.0011555
-0.00113845
-0.00111927
-0.00109791
-0.00107433
-0.00104849
-0.00102038
-0.000989952
-0.000957165
-0.000921985
-0.000884381
-0.00084432
-0.000801762
-0.000756668
-0.000709013
-0.000658769
-0.000605902
-0.000550378
-0.000492168
-0.000431245
-0.000367579
-0.000301141
-0.000231908
-0.000159857
-8.49749e-05
-7.24619e-06
7.33431e-05
0.000156812
0.000243172
0.000332431
0.000424592
0.000519664
0.000617644
0.000718529
0.0008223
0.000928941
0.00103843
0.00115074
0.00126583
0.00138368
0.00150422
0.00162744
0.00175326
0.00188164
0.0020125
0.00214576
0.00228133
0.00241911
0.002559
0.00270088
0.00284463
0.00299012
0.00313721
0.00028525
0.000280987
0.000275588
0.00026888
0.000260708
0.000251111
0.000240127
0.00022778
0.000214099
0.00019912
0.000182872
0.000165396
0.000146734
0.000126922
0.000105996
8.39982e-05
6.09754e-05
3.69674e-05
1.20192e-05
-1.38164e-05
-4.04866e-05
-6.79418e-05
-9.61261e-05
-0.000124982
-0.000154452
-0.00018448
-0.00021501
-0.000245979
-0.000277332
-0.000309005
-0.000340936
-0.000373063
-0.000405324
-0.000437654
-0.000469997
-0.000502293
-0.00053448
-0.000566497
-0.000598283
-0.00062978
-0.000660924
-0.000691659
-0.000721926
-0.00075167
-0.00078083
-0.000809349
-0.000837175
-0.000864255
-0.000890536
-0.000915968
-0.0009405
-0.000964085
-0.000986669
-0.0010082
-0.00102865
-0.00104795
-0.00106605
-0.00108291
-0.00109849
-0.00111273
-0.00112559
-0.00113702
-0.00114697
-0.00115542
-0.0011623
-0.00116759
-0.00117123
-0.0011732
-0.00117345
-0.00117194
-0.00116863
-0.00116349
-0.00115648
-0.00114756
-0.00113668
-0.00112381
-0.00110892
-0.00109195
-0.00107287
-0.00105164