/*--------------------------------*- C++ -*----------------------------------*\
| =========                 |                                                 |
| \\      /  F ield         | OpenFOAM: The Open Source CFD Toolbox           |
|  \\    /   O peration     | Version:  2112                                  |
|   \\  /    A nd           | Website:  www.openfoam.com                      |
|    \\/     M anipulation  |                                                 |
\*---------------------------------------------------------------------------*/
FoamFile
{
    version     2.0;
    format      ascii;
    arch        "LSB;label=32;scalar=64";
    class       surfaceScalarField;
    location    "5.98";
    object      phi;
}
// * * * * * * * * * * * * * * * * * * * * * * * * * * * * * * * * * * * * * //

dimensions      [0 3 -1 0 0 0 0];

oriented        oriented;

internalField   nonuniform List<scalar> 
132612
(
-2.49309e-11
2.49264e-11
3.9917e-11
-6.48973e-11
2.14357e-10
-1.7449e-10
4.73578e-10
-2.59323e-10
7.94439e-10
-3.20787e-10
1.15508e-09
-3.60636e-10
1.53685e-09
-3.81807e-10
1.92419e-09
-3.87352e-10
2.30373e-09
-3.79619e-10
2.66439e-09
-3.60664e-10
2.99682e-09
-3.32369e-10
3.29293e-09
-2.96123e-10
3.54607e-09
-2.53075e-10
3.7504e-09
-2.04314e-10
3.90108e-09
-1.50701e-10
3.99385e-09
-9.27638e-11
4.02501e-09
-3.11884e-11
3.99158e-09
3.34538e-11
3.8908e-09
1.00714e-10
3.72057e-09
1.70277e-10
3.47894e-09
2.41695e-10
3.16436e-09
3.14583e-10
2.77562e-09
3.88776e-10
2.31164e-09
4.63982e-10
1.77161e-09
5.4001e-10
1.15496e-09
6.16657e-10
4.6116e-10
6.9377e-10
-3.09939e-10
7.71113e-10
-1.15843e-09
8.48524e-10
-2.08434e-09
9.25869e-10
-3.0874e-09
1.00304e-09
-4.16743e-09
1.08003e-09
-5.32403e-09
1.15658e-09
-6.55671e-09
1.2327e-09
-7.86491e-09
1.30822e-09
-9.24809e-09
1.38317e-09
-1.07054e-08
1.45739e-09
-1.2236e-08
1.53072e-09
-1.38393e-08
1.60325e-09
-1.55141e-08
1.67488e-09
-1.72595e-08
1.74545e-09
-1.90746e-08
1.81507e-09
-2.09582e-08
1.88368e-09
-2.29093e-08
1.95107e-09
-2.49266e-08
2.01731e-09
-2.70091e-08
2.08251e-09
-2.91556e-08
2.1464e-09
-3.13647e-08
2.209e-09
-3.36351e-08
2.27043e-09
-3.59657e-08
2.33054e-09
-3.83549e-08
2.38924e-09
-4.08015e-08
2.44663e-09
-4.33042e-08
2.50268e-09
-4.58614e-08
2.55727e-09
-4.84719e-08
2.61046e-09
-5.11341e-08
2.66228e-09
-5.38467e-08
2.71261e-09
-5.66082e-08
2.76143e-09
-5.9417e-08
2.80883e-09
-6.22717e-08
2.85475e-09
-6.51708e-08
2.89905e-09
-6.81126e-08
2.9418e-09
-7.10957e-08
2.98313e-09
-7.41186e-08
3.02293e-09
-7.71797e-08
3.0611e-09
-8.02774e-08
3.09768e-09
-8.34101e-08
3.13268e-09
-8.65761e-08
3.16606e-09
-8.97739e-08
3.19777e-09
-9.30018e-08
3.22782e-09
-9.6258e-08
3.25623e-09
-9.95409e-08
3.28296e-09
-1.02849e-07
3.30789e-09
-1.0618e-07
3.33112e-09
-1.09532e-07
3.35257e-09
-1.12905e-07
3.37223e-09
-1.16295e-07
3.39003e-09
-1.19701e-07
3.40602e-09
-1.23121e-07
3.42009e-09
-1.26553e-07
3.4322e-09
-1.29995e-07
3.44233e-09
-1.33446e-07
3.45046e-09
-1.36902e-07
3.45652e-09
-1.40363e-07
3.46042e-09
-1.43825e-07
3.46215e-09
-1.47287e-07
3.46163e-09
-1.50745e-07
3.45887e-09
-1.54199e-07
3.45382e-09
-1.57646e-07
3.44629e-09
-1.61082e-07
3.43627e-09
-1.64506e-07
3.42373e-09
-1.67914e-07
3.40856e-09
-1.71305e-07
3.39073e-09
-1.74675e-07
3.37005e-09
-1.78021e-07
3.34646e-09
-1.81341e-07
3.31999e-09
-1.84632e-07
3.2904e-09
-1.87889e-07
3.25768e-09
-1.91111e-07
3.22175e-09
-1.94294e-07
3.18248e-09
-1.97433e-07
3.13979e-09
-2.00527e-07
3.09349e-09
-2.0357e-07
3.04359e-09
-2.0656e-07
2.99003e-09
-2.09493e-07
2.93256e-09
-2.12364e-07
2.8711e-09
-2.1517e-07
2.80562e-09
-2.17906e-07
2.73599e-09
-2.20568e-07
2.66208e-09
-2.23152e-07
2.58379e-09
-2.25653e-07
2.50107e-09
-2.28066e-07
2.41372e-09
-2.30388e-07
2.32172e-09
-2.32613e-07
2.225e-09
-2.34737e-07
2.12346e-09
-2.36754e-07
2.017e-09
-2.38659e-07
1.90551e-09
-2.40448e-07
1.78909e-09
-2.42115e-07
1.6675e-09
-2.43656e-07
1.54071e-09
-2.45065e-07
1.40867e-09
-2.46336e-07
1.27152e-09
-2.47466e-07
1.12917e-09
-2.48447e-07
9.81694e-10
-2.49276e-07
8.28881e-10
-2.49947e-07
6.70895e-10
-2.50455e-07
5.07855e-10
-2.50795e-07
3.39708e-10
1.66916e-10
-2.50961e-07
7.17477e-11
-4.68303e-11
3.47379e-10
-3.40406e-10
8.33812e-10
-6.61073e-10
1.5017e-09
-9.27011e-10
2.30665e-09
-1.12592e-09
3.20454e-09
-1.25848e-09
4.15262e-09
-1.32987e-09
5.11245e-09
-1.34722e-09
6.05017e-09
-1.31734e-09
6.93618e-09
-1.24663e-09
7.74436e-09
-1.14072e-09
8.45265e-09
-1.00443e-09
9.04136e-09
-8.41867e-10
9.49374e-09
-6.5671e-10
9.79513e-09
-4.52093e-10
9.93286e-09
-2.30487e-10
9.89601e-09
5.73486e-12
9.67494e-09
2.54448e-10
9.26166e-09
5.14029e-10
8.64913e-09
7.82791e-10
7.83131e-09
1.0594e-09
6.80337e-09
1.34258e-09
5.56096e-09
1.63118e-09
4.10072e-09
1.92428e-09
2.41992e-09
2.2209e-09
5.16288e-10
2.52027e-09
-1.61162e-09
2.8217e-09
-3.96498e-09
3.12451e-09
-6.54451e-09
3.42799e-09
-9.35029e-09
3.7317e-09
-1.23822e-08
4.03499e-09
-1.56397e-08
4.33751e-09
-1.91219e-08
4.63886e-09
-2.28277e-08
4.93849e-09
-2.67558e-08
5.23614e-09
-3.09042e-08
5.53162e-09
-3.52712e-08
5.82435e-09
-3.98547e-08
6.11414e-09
-4.46522e-08
6.40084e-09
-4.96614e-08
6.68397e-09
-5.48794e-08
6.96345e-09
-6.03035e-08
7.23918e-09
-6.59306e-08
7.51076e-09
-7.17575e-08
7.77809e-09
-7.77811e-08
8.04101e-09
-8.39979e-08
8.29941e-09
-9.04045e-08
8.55304e-09
-9.69972e-08
8.80178e-09
-1.03772e-07
9.04567e-09
-1.10726e-07
9.2844e-09
-1.17855e-07
9.51787e-09
-1.25154e-07
9.74619e-09
-1.32621e-07
9.96909e-09
-1.4025e-07
1.01864e-08
-1.48038e-07
1.03982e-08
-1.5598e-07
1.06045e-08
-1.64072e-07
1.08049e-08
-1.7231e-07
1.09996e-08
-1.8069e-07
1.11885e-08
-1.89207e-07
1.13714e-08
-1.97856e-07
1.15483e-08
-2.06633e-07
1.1719e-08
-2.15534e-07
1.18838e-08
-2.24553e-07
1.20424e-08
-2.33687e-07
1.21947e-08
-2.4293e-07
1.23407e-08
-2.52278e-07
1.24804e-08
-2.61725e-07
1.26136e-08
-2.71267e-07
1.27402e-08
-2.809e-07
1.28602e-08
-2.90617e-07
1.29735e-08
-3.00414e-07
1.30801e-08
-3.10286e-07
1.31798e-08
-3.20228e-07
1.32725e-08
-3.30233e-07
1.33581e-08
-3.40298e-07
1.34365e-08
-3.50415e-07
1.35076e-08
-3.6058e-07
1.35711e-08
-3.70787e-07
1.36271e-08
-3.8103e-07
1.36753e-08
-3.91304e-07
1.37156e-08
-4.01601e-07
1.37477e-08
-4.11916e-07
1.37715e-08
-4.22242e-07
1.37869e-08
-4.32574e-07
1.37935e-08
-4.42903e-07
1.37911e-08
-4.53224e-07
1.37797e-08
-4.63529e-07
1.37589e-08
-4.73811e-07
1.37283e-08
-4.84062e-07
1.36878e-08
-4.94276e-07
1.36371e-08
-5.04443e-07
1.3576e-08
-5.14557e-07
1.3504e-08
-5.24607e-07
1.34208e-08
-5.34587e-07
1.33261e-08
-5.44487e-07
1.32197e-08
-5.54297e-07
1.31009e-08
-5.64009e-07
1.29696e-08
-5.73613e-07
1.28255e-08
-5.83099e-07
1.2668e-08
-5.92456e-07
1.24968e-08
-6.01674e-07
1.23115e-08
-6.10742e-07
1.21116e-08
-6.19648e-07
1.18969e-08
-6.28383e-07
1.16668e-08
-6.36933e-07
1.1421e-08
-6.45286e-07
1.1159e-08
-6.53431e-07
1.08805e-08
-6.61353e-07
1.0585e-08
-6.69042e-07
1.02721e-08
-6.76482e-07
9.94149e-09
-6.83661e-07
9.5926e-09
-6.90565e-07
9.22523e-09
-6.97179e-07
8.83905e-09
-7.03489e-07
8.43365e-09
-7.09481e-07
8.00874e-09
-7.15139e-07
7.564e-09
-7.2045e-07
7.09946e-09
-7.25397e-07
6.61459e-09
-7.29965e-07
6.10931e-09
-7.3414e-07
5.58335e-09
-7.37905e-07
5.03689e-09
-7.41246e-07
4.46967e-09
-7.44146e-07
3.88196e-09
-7.46591e-07
3.27364e-09
-7.48565e-07
2.64487e-09
-7.50053e-07
1.99598e-09
-7.5104e-07
1.32683e-09
6.38617e-10
-7.51512e-07
1.73011e-10
-2.19867e-10
6.61893e-10
-8.29244e-10
1.43135e-09
-1.43056e-09
2.43579e-09
-1.93154e-09
3.61935e-09
-2.30946e-09
4.92274e-09
-2.56175e-09
6.28817e-09
-2.6953e-09
7.66165e-09
-2.72067e-09
8.99378e-09
-2.64941e-09
1.02402e-08
-2.4931e-09
1.13617e-08
-2.26214e-09
1.23234e-08
-1.966e-09
1.30944e-08
-1.61292e-09
1.36479e-08
-1.21019e-09
1.396e-08
-7.64242e-10
1.40101e-08
-2.80522e-10
1.37799e-08
2.35838e-10
1.32537e-08
7.80684e-10
1.24178e-08
1.35003e-09
1.12602e-08
1.94038e-09
9.77087e-09
2.54881e-09
7.94098e-09
3.17245e-09
5.76328e-09
3.80885e-09
3.23165e-09
4.45593e-09
3.41023e-10
5.11148e-09
-2.91245e-09
5.77377e-09
-6.53192e-09
6.44119e-09
-1.05195e-08
7.11208e-09
-1.48767e-08
7.78515e-09
-1.96042e-08
8.45919e-09
-2.47022e-08
9.13292e-09
-3.017e-08
9.80532e-09
-3.60066e-08
1.04755e-08
-4.22105e-08
1.11424e-08
-4.87796e-08
1.18053e-08
-5.57112e-08
1.24634e-08
-6.30028e-08
1.31159e-08
-7.06509e-08
1.37623e-08
-7.86519e-08
1.44019e-08
-8.70019e-08
1.5034e-08
-9.56966e-08
1.56583e-08
-1.04732e-07
1.62742e-08
-1.14102e-07
1.68812e-08
-1.23803e-07
1.7479e-08
-1.33829e-07
1.80672e-08
-1.44175e-07
1.86454e-08
-1.54835e-07
1.92132e-08
-1.65804e-07
1.97703e-08
-1.77075e-07
2.03165e-08
-1.88642e-07
2.08515e-08
-2.00499e-07
2.1375e-08
-2.1264e-07
2.18868e-08
-2.25057e-07
2.23866e-08
-2.37745e-07
2.28743e-08
-2.50696e-07
2.33496e-08
-2.63904e-07
2.38125e-08
-2.77362e-07
2.42625e-08
-2.91062e-07
2.46996e-08
-3.04997e-07
2.51237e-08
-3.1916e-07
2.55345e-08
-3.33544e-07
2.59319e-08
-3.48141e-07
2.63157e-08
-3.62943e-07
2.66859e-08
-3.77943e-07
2.70424e-08
-3.93133e-07
2.73847e-08
-4.08505e-07
2.77129e-08
-4.24052e-07
2.80269e-08
-4.39765e-07
2.83264e-08
-4.55635e-07
2.86111e-08
-4.71656e-07
2.8881e-08
-4.87818e-07
2.91359e-08
-5.04114e-07
2.93754e-08
-5.20533e-07
2.95995e-08
-5.37069e-07
2.98078e-08
-5.53711e-07
3.00002e-08
-5.70451e-07
3.01764e-08
-5.87279e-07
3.0336e-08
-6.04187e-07
3.04786e-08
-6.21164e-07
3.06042e-08
-6.38201e-07
3.07123e-08
-6.55288e-07
3.08023e-08
-6.72414e-07
3.08741e-08
-6.8957e-07
3.09272e-08
-7.06744e-07
3.09612e-08
-7.23926e-07
3.09754e-08
-7.41104e-07
3.09695e-08
-7.58268e-07
3.09429e-08
-7.75404e-07
3.08953e-08
-7.92501e-07
3.08257e-08
-8.09547e-07
3.07337e-08
-8.26529e-07
3.06188e-08
-8.43433e-07
3.04802e-08
-8.60246e-07
3.03171e-08
-8.76954e-07
3.01289e-08
-8.93543e-07
2.99148e-08
-9.09998e-07
2.96743e-08
-9.26303e-07
2.94061e-08
-9.42443e-07
2.91096e-08
-9.58401e-07
2.87841e-08
-9.74162e-07
2.84287e-08
-9.89708e-07
2.80425e-08
-1.00502e-06
2.76245e-08
-1.02008e-06
2.71738e-08
-1.03488e-06
2.66898e-08
-1.04938e-06
2.61712e-08
-1.06358e-06
2.56172e-08
-1.07744e-06
2.50271e-08
-1.09096e-06
2.43997e-08
-1.10411e-06
2.37343e-08
-1.11687e-06
2.303e-08
-1.12922e-06
2.22858e-08
-1.14112e-06
2.15009e-08
-1.15257e-06
2.06745e-08
-1.16354e-06
1.98058e-08
-1.174e-06
1.88942e-08
-1.18393e-06
1.79389e-08
-1.19331e-06
1.69392e-08
-1.2021e-06
1.58949e-08
-1.21029e-06
1.48052e-08
-1.21785e-06
1.367e-08
-1.22476e-06
1.24888e-08
-1.23098e-06
1.12615e-08
-1.2365e-06
9.98792e-09
-1.24129e-06
8.66833e-09
-1.24532e-06
7.30283e-09
-1.24856e-06
5.89157e-09
-1.251e-06
4.43539e-09
-1.25261e-06
2.93419e-09
1.38978e-09
-1.25336e-06
2.57983e-10
-4.77858e-10
9.25719e-10
-1.49697e-09
1.92997e-09
-2.43475e-09
3.20335e-09
-3.20495e-09
4.67533e-09
-3.78151e-09
6.27539e-09
-4.16187e-09
7.93424e-09
-4.35427e-09
9.5866e-09
-4.37295e-09
1.11716e-08
-4.23454e-09
1.26338e-08
-3.95533e-09
1.39229e-08
-3.55121e-09
1.49936e-08
-3.03671e-09
1.58056e-08
-2.42484e-09
1.63228e-08
-1.7274e-09
1.65133e-08
-9.5469e-10
1.63489e-08
-1.16155e-10
1.58046e-08
7.80046e-10
1.48586e-08
1.72668e-09
1.34917e-08
2.71684e-09
1.16873e-08
3.74488e-09
9.43072e-09
4.80539e-09
6.70965e-09
5.89353e-09
3.5134e-09
7.00518e-09
-1.66895e-10
8.13622e-09
-4.33869e-09
9.28324e-09
-9.00788e-09
1.0443e-08
-1.41793e-08
1.16126e-08
-1.98565e-08
1.27892e-08
-2.60419e-08
1.39706e-08
-3.27369e-08
1.51542e-08
-3.99421e-08
1.63382e-08
-4.76574e-08
1.75206e-08
-5.58815e-08
1.86996e-08
-6.46127e-08
1.98736e-08
-7.38485e-08
2.10411e-08
-8.35858e-08
2.22007e-08
-9.3821e-08
2.33511e-08
-1.0455e-07
2.44912e-08
-1.15768e-07
2.56197e-08
-1.27469e-07
2.67357e-08
-1.39649e-07
2.78383e-08
-1.52302e-07
2.89264e-08
-1.6542e-07
2.99993e-08
-1.78997e-07
3.10562e-08
-1.93026e-07
3.20965e-08
-2.075e-07
3.31193e-08
-2.22411e-07
3.41243e-08
-2.37751e-07
3.51106e-08
-2.53513e-07
3.60778e-08
-2.69687e-07
3.70254e-08
-2.86265e-07
3.7953e-08
-3.03238e-07
3.88601e-08
-3.20597e-07
3.97462e-08
-3.38334e-07
4.06109e-08
-3.56438e-07
4.14539e-08
-3.74901e-07
4.2275e-08
-3.93712e-07
4.30735e-08
-4.12861e-07
4.38492e-08
-4.3234e-07
4.46019e-08
-4.52136e-07
4.53313e-08
-4.72241e-07
4.60369e-08
-4.92644e-07
4.67185e-08
-5.13334e-07
4.7376e-08
-5.34301e-07
4.80091e-08
-5.55533e-07
4.86173e-08
-5.77021e-07
4.92004e-08
-5.98752e-07
4.97582e-08
-6.20716e-07
5.02902e-08
-6.42901e-07
5.07962e-08
-6.65296e-07
5.12757e-08
-6.87889e-07
5.17286e-08
-7.10667e-07
5.21542e-08
-7.3362e-07
5.25523e-08
-7.56735e-07
5.29224e-08
-7.79999e-07
5.32641e-08
-8.03399e-07
5.35769e-08
-8.26923e-07
5.38601e-08
-8.50558e-07
5.41132e-08
-8.7429e-07
5.43359e-08
-8.98105e-07
5.45273e-08
-9.21989e-07
5.46867e-08
-9.45928e-07
5.48135e-08
-9.69908e-07
5.4907e-08
-9.93913e-07
5.49663e-08
-1.01793e-06
5.49905e-08
-1.04194e-06
5.49789e-08
-1.06593e-06
5.49305e-08
-1.08987e-06
5.48443e-08
-1.11377e-06
5.47192e-08
-1.13759e-06
5.45542e-08
-1.16132e-06
5.43482e-08
-1.18494e-06
5.41001e-08
-1.20843e-06
5.38085e-08
-1.23177e-06
5.34722e-08
-1.25495e-06
5.30897e-08
-1.27793e-06
5.266e-08
-1.30071e-06
5.21813e-08
-1.32325e-06
5.16524e-08
-1.34554e-06
5.10718e-08
-1.36755e-06
5.04379e-08
-1.38926e-06
4.97493e-08
-1.41063e-06
4.90043e-08
-1.43166e-06
4.82013e-08
-1.45231e-06
4.73389e-08
-1.47256e-06
4.64152e-08
-1.49237e-06
4.54288e-08
-1.51172e-06
4.43781e-08
-1.53058e-06
4.32614e-08
-1.54892e-06
4.20773e-08
-1.56672e-06
4.0824e-08
-1.58393e-06
3.95002e-08
-1.60053e-06
3.81041e-08
-1.61649e-06
3.66346e-08
-1.63178e-06
3.50902e-08
-1.64635e-06
3.34697e-08
-1.66019e-06
3.1772e-08
-1.67324e-06
2.99957e-08
-1.68549e-06
2.81404e-08
-1.69689e-06
2.62048e-08
-1.70741e-06
2.41886e-08
-1.71701e-06
2.20911e-08
-1.72566e-06
1.99122e-08
-1.73332e-06
1.76516e-08
-1.73997e-06
1.53094e-08
-1.74555e-06
1.28861e-08
-1.75004e-06
1.0382e-08
-1.7534e-06
7.79856e-09
-1.7556e-06
5.13568e-09
2.39597e-09
-1.75661e-06
3.19312e-10
-7.97279e-10
1.12425e-09
-2.30192e-09
2.30767e-09
-3.61808e-09
3.77971e-09
-4.67697e-09
5.45583e-09
-5.45764e-09
7.25426e-09
-5.96026e-09
9.09663e-09
-6.19656e-09
1.09086e-08
-6.18494e-09
1.26206e-08
-5.94648e-09
1.41682e-08
-5.50295e-09
1.54924e-08
-4.87548e-09
1.65396e-08
-4.08386e-09
1.72611e-08
-3.14635e-09
1.76131e-08
-2.07939e-09
1.75565e-08
-8.98093e-10
1.70563e-08
3.84097e-10
1.60813e-08
1.75516e-09
1.4604e-08
3.20397e-09
1.25999e-08
4.72093e-09
1.00477e-08
6.29706e-09
6.92879e-09
7.9243e-09
3.22685e-09
9.59552e-09
-1.07203e-09
1.1304e-08
-5.97969e-09
1.30438e-08
-1.1506e-08
1.48096e-08
-1.76592e-08
1.65962e-08
-2.44459e-08
1.83992e-08
-3.18709e-08
2.02143e-08
-3.99381e-08
2.20377e-08
-4.86498e-08
2.38659e-08
-5.80072e-08
2.56957e-08
-6.80107e-08
2.7524e-08
-7.86591e-08
2.9348e-08
-8.99507e-08
3.11653e-08
-1.01883e-07
3.29733e-08
-1.14452e-07
3.477e-08
-1.27654e-07
3.65532e-08
-1.41484e-07
3.83211e-08
-1.55936e-07
4.00719e-08
-1.71005e-07
4.18039e-08
-1.86682e-07
4.35157e-08
-2.02962e-07
4.52058e-08
-2.19835e-07
4.68728e-08
-2.37294e-07
4.85156e-08
-2.55331e-07
5.01329e-08
-2.73935e-07
5.17237e-08
-2.93098e-07
5.32871e-08
-3.1281e-07
5.4822e-08
-3.33059e-07
5.63276e-08
-3.53837e-07
5.78031e-08
-3.75132e-07
5.92477e-08
-3.96932e-07
6.06607e-08
-4.19228e-07
6.20415e-08
-4.42006e-07
6.33893e-08
-4.65256e-07
6.47034e-08
-4.88964e-07
6.59835e-08
-5.1312e-07
6.72289e-08
-5.37709e-07
6.84389e-08
-5.62721e-07
6.96132e-08
-5.8814e-07
7.07512e-08
-6.13956e-07
7.18524e-08
-6.40154e-07
7.29164e-08
-6.6672e-07
7.39427e-08
-6.93642e-07
7.49309e-08
-7.20906e-07
7.58806e-08
-7.48496e-07
7.67911e-08
-7.764e-07
7.7662e-08
-8.04602e-07
7.84928e-08
-8.33089e-07
7.92829e-08
-8.61845e-07
8.00318e-08
-8.90855e-07
8.07389e-08
-9.20105e-07
8.14035e-08
-9.49578e-07
8.20251e-08
-9.79258e-07
8.26029e-08
-1.00913e-06
8.31362e-08
-1.03918e-06
8.36243e-08
-1.06938e-06
8.40661e-08
-1.09973e-06
8.44609e-08
-1.1302e-06
8.48078e-08
-1.16078e-06
8.51058e-08
-1.19145e-06
8.53538e-08
-1.22219e-06
8.55507e-08
-1.25297e-06
8.56953e-08
-1.28379e-06
8.57865e-08
-1.31463e-06
8.58228e-08
-1.34545e-06
8.58028e-08
-1.37625e-06
8.57252e-08
-1.40699e-06
8.55884e-08
-1.43766e-06
8.53908e-08
-1.46824e-06
8.51306e-08
-1.4987e-06
8.48063e-08
-1.52901e-06
8.4416e-08
-1.55916e-06
8.39576e-08
-1.58912e-06
8.34293e-08
-1.61886e-06
8.28289e-08
-1.64835e-06
8.21544e-08
-1.67757e-06
8.14035e-08
-1.7065e-06
8.0574e-08
-1.73509e-06
7.96637e-08
-1.76332e-06
7.86702e-08
-1.79116e-06
7.75911e-08
-1.81858e-06
7.6424e-08
-1.84555e-06
7.51664e-08
-1.87202e-06
7.38158e-08
-1.89798e-06
7.23699e-08
-1.92337e-06
7.08259e-08
-1.94818e-06
6.91817e-08
-1.97235e-06
6.74346e-08
-1.99586e-06
6.55823e-08
-2.01865e-06
6.36221e-08
-2.04071e-06
6.1552e-08
-2.06197e-06
5.93695e-08
-2.08241e-06
5.70725e-08
-2.10198e-06
5.46589e-08
-2.12064e-06
5.21267e-08
-2.13834e-06
4.94744e-08
-2.15504e-06
4.67e-08
-2.1707e-06
4.38023e-08
-2.18528e-06
4.078e-08
-2.19872e-06
3.76321e-08
-2.21099e-06
3.4358e-08
-2.22203e-06
3.09572e-08
-2.23181e-06
2.74296e-08
-2.24028e-06
2.37751e-08
-2.24739e-06
1.99946e-08
-2.25309e-06
1.60886e-08
-2.25735e-06
1.2059e-08
-2.26012e-06
7.90647e-09
3.63409e-09
-2.26136e-06
3.5977e-10
-1.15696e-09
1.25765e-09
-3.19996e-09
2.5616e-09
-4.92195e-09
4.16241e-09
-6.27771e-09
5.9615e-09
-7.25684e-09
7.86717e-09
-7.86582e-09
9.79244e-09
-8.12189e-09
1.16557e-08
-8.04813e-09
1.33802e-08
-7.6709e-09
1.48945e-08
-7.01716e-09
1.61324e-08
-6.11338e-09
1.70333e-08
-4.98482e-09
1.75418e-08
-3.65479e-09
1.76075e-08
-2.14514e-09
1.71849e-08
-4.75526e-10
1.62329e-08
1.33609e-09
1.47148e-08
3.27319e-09
1.25978e-08
5.32106e-09
9.85256e-09
7.46614e-09
6.45338e-09
9.6962e-09
2.37749e-09
1.20002e-08
-2.39497e-09
1.4368e-08
-7.8812e-09
1.67902e-08
-1.4096e-08
1.92587e-08
-2.10518e-08
2.17654e-08
-2.87591e-08
2.43035e-08
-3.72264e-08
2.68664e-08
-4.64603e-08
2.94482e-08
-5.64659e-08
3.20432e-08
-6.72465e-08
3.46466e-08
-7.88044e-08
3.72535e-08
-9.11402e-08
3.98597e-08
-1.04253e-07
4.24612e-08
-1.18142e-07
4.50542e-08
-1.32804e-07
4.76353e-08
-1.48236e-07
5.02013e-08
-1.64432e-07
5.27492e-08
-1.81387e-07
5.52762e-08
-1.99094e-07
5.77797e-08
-2.17548e-07
6.02574e-08
-2.36739e-07
6.2707e-08
-2.5666e-07
6.51264e-08
-2.77301e-07
6.75135e-08
-2.98652e-07
6.98668e-08
-3.20703e-07
7.21844e-08
-3.43444e-07
7.44646e-08
-3.66863e-07
7.67062e-08
-3.90949e-07
7.89075e-08
-4.15689e-07
8.10674e-08
-4.4107e-07
8.31847e-08
-4.67081e-07
8.52582e-08
-4.93707e-07
8.72867e-08
-5.20935e-07
8.92695e-08
-5.48751e-07
9.12053e-08
-5.77141e-07
9.30933e-08
-6.0609e-07
9.49326e-08
-6.35583e-07
9.67224e-08
-6.65606e-07
9.84618e-08
-6.96143e-07
1.0015e-07
-7.27178e-07
1.01786e-07
-7.58696e-07
1.0337e-07
-7.9068e-07
1.049e-07
-8.23114e-07
1.06377e-07
-8.55981e-07
1.07798e-07
-8.89266e-07
1.09165e-07
-9.22949e-07
1.10475e-07
-9.57015e-07
1.11728e-07
-9.91446e-07
1.12923e-07
-1.02622e-06
1.1406e-07
-1.06133e-06
1.15138e-07
-1.09675e-06
1.16156e-07
-1.13245e-06
1.17112e-07
-1.16844e-06
1.18006e-07
-1.20467e-06
1.18838e-07
-1.24114e-06
1.19605e-07
-1.27782e-06
1.20306e-07
-1.3147e-06
1.20942e-07
-1.35174e-06
1.21509e-07
-1.38894e-06
1.22007e-07
-1.42627e-06
1.22435e-07
-1.46371e-06
1.2279e-07
-1.50123e-06
1.23072e-07
-1.53881e-06
1.23278e-07
-1.57643e-06
1.23407e-07
-1.61407e-06
1.23457e-07
-1.65169e-06
1.23426e-07
-1.68928e-06
1.23311e-07
-1.7268e-06
1.23111e-07
-1.76423e-06
1.22823e-07
-1.80155e-06
1.22445e-07
-1.83872e-06
1.21975e-07
-1.87571e-06
1.21409e-07
-1.9125e-06
1.20745e-07
-1.94905e-06
1.1998e-07
-1.98533e-06
1.19112e-07
-2.02131e-06
1.18136e-07
-2.05696e-06
1.1705e-07
-2.09224e-06
1.15852e-07
-2.12711e-06
1.14536e-07
-2.16154e-06
1.13101e-07
-2.19549e-06
1.11543e-07
-2.22893e-06
1.09858e-07
-2.2618e-06
1.08043e-07
-2.29408e-06
1.06093e-07
-2.32572e-06
1.04007e-07
-2.35667e-06
1.0178e-07
-2.3869e-06
9.94086e-08
-2.41635e-06
9.68894e-08
-2.44499e-06
9.42189e-08
-2.47276e-06
9.13935e-08
-2.49962e-06
8.84101e-08
-2.52551e-06
8.52654e-08
-2.5504e-06
8.19562e-08
-2.57422e-06
7.84797e-08
-2.59692e-06
7.4833e-08
-2.61846e-06
7.10138e-08
-2.63878e-06
6.70196e-08
-2.65783e-06
6.28486e-08
-2.67555e-06
5.84989e-08
-2.69189e-06
5.39692e-08
-2.70679e-06
4.92585e-08
-2.7202e-06
4.43662e-08
-2.73206e-06
3.92924e-08
-2.74232e-06
3.40367e-08
-2.75093e-06
2.86006e-08
-2.75782e-06
2.29846e-08
-2.76296e-06
1.71917e-08
-2.76627e-06
1.12229e-08
5.08216e-09
-2.76772e-06
3.81524e-10
-1.53846e-09
1.33096e-09
-4.14932e-09
2.69842e-09
-6.28944e-09
4.35975e-09
-7.93906e-09
6.20443e-09
-9.10143e-09
8.13127e-09
-9.79269e-09
1.00461e-08
-1.00367e-08
1.18607e-08
-9.86275e-09
1.34923e-08
-9.30247e-09
1.48635e-08
-8.38842e-09
1.59027e-08
-7.15256e-09
1.65433e-08
-5.62529e-09
1.67241e-08
-3.83561e-09
1.63892e-08
-1.81023e-09
1.54876e-08
4.26133e-10
1.3973e-08
2.85067e-09
1.18036e-08
5.44255e-09
8.9419e-09
8.18277e-09
5.35416e-09
1.10539e-08
1.01043e-09
1.404e-08
-4.11586e-09
1.71265e-08
-1.00481e-08
2.03002e-08
-1.68066e-08
2.35488e-08
-2.44091e-08
2.68612e-08
-3.28706e-08
3.02269e-08
-4.22038e-08
3.36367e-08
-5.24191e-08
3.70818e-08
-6.35251e-08
4.05541e-08
-7.5528e-08
4.40462e-08
-8.84327e-08
4.75512e-08
-1.02242e-07
5.10629e-08
-1.16958e-07
5.45753e-08
-1.32579e-07
5.8083e-08
-1.49106e-07
6.15807e-08
-1.66535e-07
6.5064e-08
-1.84862e-07
6.85284e-08
-2.04082e-07
7.19697e-08
-2.2419e-07
7.53841e-08
-2.45179e-07
7.87682e-08
-2.6704e-07
8.21185e-08
-2.89765e-07
8.54319e-08
-3.13344e-07
8.87057e-08
-3.37767e-07
9.1937e-08
-3.63024e-07
9.51232e-08
-3.89102e-07
9.82622e-08
-4.15989e-07
1.01352e-07
-4.43672e-07
1.04389e-07
-4.72138e-07
1.07373e-07
-5.01372e-07
1.10302e-07
-5.31361e-07
1.13174e-07
-5.6209e-07
1.15987e-07
-5.93542e-07
1.18739e-07
-6.25703e-07
1.2143e-07
-6.58556e-07
1.24058e-07
-6.92084e-07
1.26622e-07
-7.26271e-07
1.2912e-07
-7.61099e-07
1.31551e-07
-7.96551e-07
1.33914e-07
-8.32609e-07
1.36208e-07
-8.69254e-07
1.38431e-07
-9.06467e-07
1.40584e-07
-9.44231e-07
1.42664e-07
-9.82526e-07
1.44671e-07
-1.02133e-06
1.46604e-07
-1.06063e-06
1.48462e-07
-1.1004e-06
1.50244e-07
-1.14062e-06
1.51948e-07
-1.18127e-06
1.53574e-07
-1.22233e-06
1.5512e-07
-1.26378e-06
1.56586e-07
-1.30559e-06
1.57969e-07
-1.34775e-06
1.5927e-07
-1.39023e-06
1.60486e-07
-1.43301e-06
1.61616e-07
-1.47606e-06
1.62659e-07
-1.51937e-06
1.63613e-07
-1.5629e-06
1.64476e-07
-1.60664e-06
1.65246e-07
-1.65055e-06
1.65922e-07
-1.69462e-06
1.66502e-07
-1.73881e-06
1.66983e-07
-1.7831e-06
1.67364e-07
-1.82747e-06
1.67642e-07
-1.87188e-06
1.67815e-07
-1.9163e-06
1.67879e-07
-1.96071e-06
1.67833e-07
-2.00507e-06
1.67673e-07
-2.04935e-06
1.67397e-07
-2.09353e-06
1.67001e-07
-2.13757e-06
1.66482e-07
-2.18143e-06
1.65837e-07
-2.22508e-06
1.65062e-07
-2.26849e-06
1.64153e-07
-2.31162e-06
1.63106e-07
-2.35442e-06
1.61919e-07
-2.39687e-06
1.60585e-07
-2.43892e-06
1.59101e-07
-2.48054e-06
1.57464e-07
-2.52167e-06
1.55667e-07
-2.56227e-06
1.53708e-07
-2.60231e-06
1.51581e-07
-2.64174e-06
1.49281e-07
-2.6805e-06
1.46805e-07
-2.71855e-06
1.44146e-07
-2.75584e-06
1.41301e-07
-2.79233e-06
1.38264e-07
-2.82795e-06
1.35031e-07
-2.86266e-06
1.31598e-07
-2.8964e-06
1.27958e-07
-2.92911e-06
1.24109e-07
-2.96075e-06
1.20045e-07
-2.99125e-06
1.15762e-07
-3.02054e-06
1.11255e-07
-3.04859e-06
1.06522e-07
-3.07531e-06
1.01558e-07
-3.10066e-06
9.63594e-08
-3.12456e-06
9.09239e-08
-3.14696e-06
8.52486e-08
-3.16779e-06
7.93312e-08
-3.18699e-06
7.31698e-08
-3.2045e-06
6.67632e-08
-3.22024e-06
6.01105e-08
-3.23416e-06
5.32118e-08
-3.24619e-06
4.6067e-08
-3.25627e-06
3.86778e-08
-3.26433e-06
3.10451e-08
-3.27031e-06
2.31727e-08
-3.27415e-06
1.50625e-08
6.71938e-09
-3.27579e-06
3.87869e-10
-1.92632e-09
1.35066e-09
-5.11219e-09
2.72841e-09
-7.66719e-09
4.38568e-09
-9.59625e-09
6.20241e-09
-1.09182e-08
8.06959e-09
-1.16598e-08
9.88642e-09
-1.18535e-08
1.15591e-08
-1.15354e-08
1.29997e-08
-1.0743e-08
1.41259e-08
-9.51479e-09
1.48614e-08
-7.88793e-09
1.51347e-08
-5.89855e-09
1.48799e-08
-3.58083e-09
1.40364e-08
-9.66658e-10
1.25484e-08
1.91409e-09
1.03652e-08
5.03389e-09
7.4404e-09
8.36733e-09
3.73228e-09
1.18908e-08
-7.9686e-10
1.5583e-08
-6.18083e-09
1.94239e-08
-1.24498e-08
2.33954e-08
-1.96303e-08
2.74807e-08
-2.77459e-08
3.16644e-08
-3.68169e-08
3.59322e-08
-4.6861e-08
4.0271e-08
-5.78931e-08
4.46688e-08
-6.99257e-08
4.91143e-08
-8.29687e-08
5.35971e-08
-9.70303e-08
5.81079e-08
-1.12117e-07
6.26374e-08
-1.28231e-07
6.71776e-08
-1.45377e-07
7.17209e-08
-1.63554e-07
7.62599e-08
-1.82761e-07
8.07883e-08
-2.02997e-07
8.52996e-08
-2.24257e-07
8.97883e-08
-2.46536e-07
9.42488e-08
-2.69828e-07
9.86762e-08
-2.94126e-07
1.03066e-07
-3.1942e-07
1.07413e-07
-3.45702e-07
1.11714e-07
-3.72962e-07
1.15965e-07
-4.01187e-07
1.20162e-07
-4.30365e-07
1.24302e-07
-4.60484e-07
1.28381e-07
-4.9153e-07
1.32398e-07
-5.23489e-07
1.36348e-07
-5.56345e-07
1.40229e-07
-5.90082e-07
1.4404e-07
-6.24686e-07
1.47777e-07
-6.60137e-07
1.51438e-07
-6.96421e-07
1.55022e-07
-7.33517e-07
1.58527e-07
-7.71409e-07
1.6195e-07
-8.10076e-07
1.65289e-07
-8.49501e-07
1.68544e-07
-8.89663e-07
1.71713e-07
-9.30542e-07
1.74793e-07
-9.72118e-07
1.77784e-07
-1.01437e-06
1.80683e-07
-1.05728e-06
1.8349e-07
-1.10082e-06
1.86204e-07
-1.14497e-06
1.88822e-07
-1.18971e-06
1.91344e-07
-1.23501e-06
1.93767e-07
-1.28086e-06
1.96092e-07
-1.32723e-06
1.98315e-07
-1.37409e-06
2.00437e-07
-1.42142e-06
2.02454e-07
-1.46921e-06
2.04367e-07
-1.51741e-06
2.06173e-07
-1.56601e-06
2.0787e-07
-1.61498e-06
2.09456e-07
-1.66429e-06
2.1093e-07
-1.71392e-06
2.1229e-07
-1.76385e-06
2.13534e-07
-1.81403e-06
2.14659e-07
-1.86445e-06
2.15663e-07
-1.91507e-06
2.16543e-07
-1.96586e-06
2.17297e-07
-2.0168e-06
2.17923e-07
-2.06785e-06
2.18417e-07
-2.11899e-06
2.18776e-07
-2.17017e-06
2.18997e-07
-2.22137e-06
2.19077e-07
-2.27255e-06
2.19012e-07
-2.32367e-06
2.18799e-07
-2.37471e-06
2.18432e-07
-2.42562e-06
2.1791e-07
-2.47636e-06
2.17226e-07
-2.5269e-06
2.16377e-07
-2.5772e-06
2.15358e-07
-2.62721e-06
2.14164e-07
-2.67689e-06
2.1279e-07
-2.7262e-06
2.11231e-07
-2.7751e-06
2.09482e-07
-2.82353e-06
2.07537e-07
-2.87146e-06
2.0539e-07
-2.91883e-06
2.03036e-07
-2.96559e-06
2.00469e-07
-3.01169e-06
1.97683e-07
-3.05708e-06
1.94672e-07
-3.10171e-06
1.91429e-07
-3.14551e-06
1.87949e-07
-3.18844e-06
1.84226e-07
-3.23042e-06
1.80253e-07
-3.27142e-06
1.76024e-07
-3.31135e-06
1.71533e-07
-3.35017e-06
1.66774e-07
-3.3878e-06
1.61741e-07
-3.42418e-06
1.56428e-07
-3.45925e-06
1.5083e-07
-3.49293e-06
1.44941e-07
-3.52517e-06
1.38757e-07
-3.55588e-06
1.32272e-07
-3.58501e-06
1.25482e-07
-3.61247e-06
1.18384e-07
-3.63819e-06
1.10973e-07
-3.66211e-06
1.03248e-07
-3.68414e-06
9.52055e-08
-3.70422e-06
8.6844e-08
-3.72228e-06
7.81625e-08
-3.73823e-06
6.91612e-08
-3.752e-06
5.98401e-08
-3.76352e-06
5.02013e-08
-3.77272e-06
4.02463e-08
-3.77953e-06
2.99795e-08
-3.78387e-06
1.94043e-08
8.5263e-09
-3.78568e-06
3.81112e-10
-2.30738e-09
1.32384e-09
-6.05498e-09
2.66309e-09
-9.00637e-09
4.25613e-09
-1.11893e-08
5.97605e-09
-1.26381e-08
7.70744e-09
-1.33912e-08
9.34416e-09
-1.34902e-08
1.07875e-08
-1.29786e-08
1.19451e-08
-1.19007e-08
1.27309e-08
-1.03005e-08
1.30641e-08
-8.22113e-09
1.28695e-08
-5.70403e-09
1.20773e-08
-2.78859e-09
1.06226e-08
4.87952e-10
8.446e-09
4.09076e-09
5.49251e-09
7.9874e-09
1.71208e-09
1.21477e-08
-2.94084e-09
1.65438e-08
-8.50764e-09
2.11498e-08
-1.50255e-08
2.59418e-08
-2.25279e-08
3.08977e-08
-3.10445e-08
3.59973e-08
-4.06015e-08
4.12214e-08
-5.12221e-08
4.65528e-08
-6.29263e-08
5.19753e-08
-7.57313e-08
5.74737e-08
-8.96512e-08
6.30343e-08
-1.04698e-07
6.86442e-08
-1.20882e-07
7.42914e-08
-1.38209e-07
7.99648e-08
-1.56685e-07
8.56539e-08
-1.76314e-07
9.13493e-08
-1.97096e-07
9.70418e-08
-2.19031e-07
1.02723e-07
-2.42116e-07
1.08385e-07
-2.66349e-07
1.14021e-07
-2.91724e-07
1.19624e-07
-3.18235e-07
1.25187e-07
-3.45874e-07
1.30704e-07
-3.74631e-07
1.3617e-07
-4.04497e-07
1.4158e-07
-4.35461e-07
1.46928e-07
-4.6751e-07
1.52211e-07
-5.0063e-07
1.57423e-07
-5.34809e-07
1.6256e-07
-5.7003e-07
1.67619e-07
-6.06279e-07
1.72596e-07
-6.43538e-07
1.77488e-07
-6.8179e-07
1.82292e-07
-7.21017e-07
1.87004e-07
-7.61201e-07
1.91622e-07
-8.02322e-07
1.96143e-07
-8.4436e-07
2.00565e-07
-8.87295e-07
2.04885e-07
-9.31106e-07
2.091e-07
-9.75772e-07
2.1321e-07
-1.02127e-06
2.17211e-07
-1.06758e-06
2.21101e-07
-1.11467e-06
2.24878e-07
-1.16253e-06
2.28542e-07
-1.21113e-06
2.32089e-07
-1.26044e-06
2.35517e-07
-1.31045e-06
2.38826e-07
-1.36112e-06
2.42013e-07
-1.41243e-06
2.45077e-07
-1.46435e-06
2.48015e-07
-1.51686e-06
2.50826e-07
-1.56993e-06
2.53508e-07
-1.62354e-06
2.56059e-07
-1.67765e-06
2.58477e-07
-1.73223e-06
2.60759e-07
-1.78727e-06
2.62905e-07
-1.84272e-06
2.6491e-07
-1.89857e-06
2.66773e-07
-1.95477e-06
2.68492e-07
-2.0113e-06
2.70063e-07
-2.06812e-06
2.71483e-07
-2.12521e-06
2.7275e-07
-2.18253e-06
2.73861e-07
-2.24004e-06
2.74811e-07
-2.29772e-06
2.75599e-07
-2.35552e-06
2.76219e-07
-2.41341e-06
2.76669e-07
-2.47136e-06
2.76944e-07
-2.52932e-06
2.77039e-07
-2.58726e-06
2.76951e-07
-2.64514e-06
2.76675e-07
-2.70291e-06
2.76204e-07
-2.76053e-06
2.75536e-07
-2.81797e-06
2.74663e-07
-2.87517e-06
2.7358e-07
-2.9321e-06
2.72282e-07
-2.9887e-06
2.70763e-07
-3.04492e-06
2.69015e-07
-3.10072e-06
2.67033e-07
-3.15605e-06
2.64809e-07
-3.21085e-06
2.62338e-07
-3.26508e-06
2.59611e-07
-3.31866e-06
2.56622e-07
-3.37156e-06
2.53364e-07
-3.4237e-06
2.49828e-07
-3.47504e-06
2.46007e-07
-3.5255e-06
2.41894e-07
-3.57503e-06
2.3748e-07
-3.62356e-06
2.32758e-07
-3.67103e-06
2.27721e-07
-3.71737e-06
2.22361e-07
-3.76251e-06
2.16669e-07
-3.80637e-06
2.10639e-07
-3.84889e-06
2.04262e-07
-3.89e-06
1.97533e-07
-3.92961e-06
1.90443e-07
-3.96766e-06
1.82986e-07
-4.00406e-06
1.75157e-07
-4.03873e-06
1.66948e-07
-4.07161e-06
1.58354e-07
-4.10259e-06
1.49372e-07
-4.13162e-06
1.39996e-07
-4.15859e-06
1.30223e-07
-4.18343e-06
1.20049e-07
-4.20606e-06
1.09475e-07
-4.2264e-06
9.84966e-08
-4.24435e-06
8.71156e-08
-4.25984e-06
7.53317e-08
-4.27279e-06
6.31478e-08
-4.28311e-06
5.0566e-08
-4.29072e-06
3.75913e-08
-4.29555e-06
2.42287e-08
1.04849e-08
-4.29751e-06
3.63281e-10
-2.67067e-09
1.25657e-09
-6.94819e-09
2.51332e-09
-1.02632e-08
3.98712e-09
-1.26631e-08
5.54624e-09
-1.41972e-08
7.07084e-09
-1.49158e-08
8.45034e-09
-1.48697e-08
9.58223e-09
-1.41106e-08
1.03707e-08
-1.26892e-08
1.0726e-08
-1.06558e-08
1.05643e-08
-8.05934e-09
9.80682e-09
-4.94658e-09
8.38058e-09
-1.36232e-09
6.21743e-09
2.65109e-09