/*--------------------------------*- C++ -*----------------------------------*\
| =========                 |                                                 |
| \\      /  F ield         | OpenFOAM: The Open Source CFD Toolbox           |
|  \\    /   O peration     | Version:  2112                                  |
|   \\  /    A nd           | Website:  www.openfoam.com                      |
|    \\/     M anipulation  |                                                 |
\*---------------------------------------------------------------------------*/
FoamFile
{
    version     2.0;
    format      ascii;
    arch        "LSB;label=32;scalar=64";
    class       volVectorField;
    location    "5.98";
    object      U;
}
// * * * * * * * * * * * * * * * * * * * * * * * * * * * * * * * * * * * * * //

dimensions      [0 1 -1 0 0 0 0];

internalField   nonuniform List<vector> 
66564
(
(-6.60222e-08 1.01027e-07 0)
(-4.86333e-08 -1.76673e-08 0)
(4.11007e-07 -1.89661e-07 0)
(1.22136e-06 -3.12866e-07 0)
(2.32088e-06 -3.96278e-07 0)
(3.6057e-06 -4.47095e-07 0)
(5.00167e-06 -4.72615e-07 0)
(6.44643e-06 -4.78026e-07 0)
(7.88445e-06 -4.68252e-07 0)
(9.27119e-06 -4.44935e-07 0)
(1.05692e-05 -4.11976e-07 0)
(1.17455e-05 -3.7096e-07 0)
(1.27738e-05 -3.22926e-07 0)
(1.36298e-05 -2.70544e-07 0)
(1.4295e-05 -2.13066e-07 0)
(1.47515e-05 -1.52042e-07 0)
(1.49847e-05 -8.83486e-08 0)
(1.49833e-05 -2.17807e-08 0)
(1.47352e-05 4.57043e-08 0)
(1.42322e-05 1.15155e-07 0)
(1.3467e-05 1.85687e-07 0)
(1.24322e-05 2.56099e-07 0)
(1.11238e-05 3.2731e-07 0)
(9.53711e-06 3.98891e-07 0)
(7.66791e-06 4.70225e-07 0)
(5.51494e-06 5.42102e-07 0)
(3.07539e-06 6.13721e-07 0)
(3.47705e-07 6.84072e-07 0)
(-2.66741e-06 7.53661e-07 0)
(-5.97088e-06 8.22128e-07 0)
(-9.56288e-06 8.89683e-07 0)
(-1.34413e-05 9.56544e-07 0)
(-1.76059e-05 1.02316e-06 0)
(-2.20549e-05 1.08789e-06 0)
(-2.67859e-05 1.15175e-06 0)
(-3.17972e-05 1.21486e-06 0)
(-3.70863e-05 1.27613e-06 0)
(-4.265e-05 1.33564e-06 0)
(-4.84852e-05 1.39409e-06 0)
(-5.4589e-05 1.45097e-06 0)
(-6.09577e-05 1.50598e-06 0)
(-6.75872e-05 1.56005e-06 0)
(-7.44741e-05 1.6129e-06 0)
(-8.16145e-05 1.66383e-06 0)
(-8.90037e-05 1.71337e-06 0)
(-9.66375e-05 1.76191e-06 0)
(-0.000104512 1.8085e-06 0)
(-0.000112622 1.85314e-06 0)
(-0.000120963 1.89669e-06 0)
(-0.000129529 1.93858e-06 0)
(-0.000138318 1.97848e-06 0)
(-0.000147322 2.01695e-06 0)
(-0.000156537 2.05408e-06 0)
(-0.000165959 2.08967e-06 0)
(-0.000175581 2.1237e-06 0)
(-0.000185398 2.15631e-06 0)
(-0.000195406 2.18749e-06 0)
(-0.000205598 2.21709e-06 0)
(-0.00021597 2.24494e-06 0)
(-0.000226515 2.27122e-06 0)
(-0.000237228 2.29574e-06 0)
(-0.000248103 2.31858e-06 0)
(-0.000259135 2.34034e-06 0)
(-0.000270318 2.36085e-06 0)
(-0.000281646 2.37991e-06 0)
(-0.000293113 2.39742e-06 0)
(-0.000304714 2.41345e-06 0)
(-0.000316441 2.42807e-06 0)
(-0.00032829 2.44125e-06 0)
(-0.000340254 2.45287e-06 0)
(-0.000352327 2.463e-06 0)
(-0.000364502 2.47176e-06 0)
(-0.000376774 2.47896e-06 0)
(-0.000389135 2.4846e-06 0)
(-0.000401579 2.48882e-06 0)
(-0.0004141 2.4919e-06 0)
(-0.000426691 2.49369e-06 0)
(-0.000439345 2.49392e-06 0)
(-0.000452055 2.49259e-06 0)
(-0.000464813 2.48986e-06 0)
(-0.000477613 2.48588e-06 0)
(-0.000490447 2.48038e-06 0)
(-0.000503307 2.47324e-06 0)
(-0.000516186 2.46438e-06 0)
(-0.000529076 2.45408e-06 0)
(-0.000541968 2.4423e-06 0)
(-0.000554854 2.42905e-06 0)
(-0.000567725 2.4142e-06 0)
(-0.000580573 2.39769e-06 0)
(-0.000593388 2.37972e-06 0)
(-0.000606161 2.36014e-06 0)
(-0.000618883 2.33886e-06 0)
(-0.000631543 2.31609e-06 0)
(-0.000644132 2.29145e-06 0)
(-0.000656638 2.26489e-06 0)
(-0.000669051 2.23658e-06 0)
(-0.00068136 2.20635e-06 0)
(-0.000693553 2.17439e-06 0)
(-0.000705619 2.14045e-06 0)
(-0.000717544 2.10454e-06 0)
(-0.000729317 2.06673e-06 0)
(-0.000740924 2.02682e-06 0)
(-0.000752352 1.9849e-06 0)
(-0.000763588 1.94103e-06 0)
(-0.000774617 1.89501e-06 0)
(-0.000785425 1.8469e-06 0)
(-0.000795997 1.79659e-06 0)
(-0.000806317 1.74396e-06 0)
(-0.00081637 1.68914e-06 0)
(-0.000826139 1.63209e-06 0)
(-0.000835609 1.57275e-06 0)
(-0.000844763 1.51091e-06 0)
(-0.000853583 1.44678e-06 0)
(-0.000862051 1.38029e-06 0)
(-0.00087015 1.3114e-06 0)
(-0.000877862 1.24009e-06 0)
(-0.000885168 1.16636e-06 0)
(-0.00089205 1.09046e-06 0)
(-0.000898489 1.01195e-06 0)
(-0.000904465 9.31146e-07 0)
(-0.00090996 8.47801e-07 0)
(-0.000914954 7.62378e-07 0)
(-0.000919428 6.74464e-07 0)
(-0.000923361 5.84575e-07 0)
(-0.000926736 4.92124e-07 0)
(-0.000929531 3.97691e-07 0)
(-0.00093173 3.01104e-07 0)
(-0.000933311 2.02513e-07 0)
(-0.000934258 1.02339e-07 0)
(5.90421e-08 3.8191e-08 0)
(6.03367e-07 -5.5312e-07 0)
(2.01288e-06 -1.26883e-06 0)
(4.19024e-06 -1.84245e-06 0)
(6.95537e-06 -2.25693e-06 0)
(1.01465e-05 -2.52358e-06 0)
(1.36013e-05 -2.6592e-06 0)
(1.71659e-05 -2.68543e-06 0)
(2.07077e-05 -2.61867e-06 0)
(2.41094e-05 -2.47446e-06 0)
(2.72674e-05 -2.26639e-06 0)
(3.00942e-05 -2.00394e-06 0)
(3.25108e-05 -1.69773e-06 0)
(3.44528e-05 -1.35384e-06 0)
(3.58604e-05 -9.79808e-07 0)
(3.66829e-05 -5.80355e-07 0)
(3.6879e-05 -1.59074e-07 0)
(3.64081e-05 2.78055e-07 0)
(3.52396e-05 7.29161e-07 0)
(3.33456e-05 1.19114e-06 0)
(3.07006e-05 1.6604e-06 0)
(2.72868e-05 2.13561e-06 0)
(2.30855e-05 2.61454e-06 0)
(1.80827e-05 3.09467e-06 0)
(1.22684e-05 3.57577e-06 0)
(5.63208e-06 4.05585e-06 0)
(-1.83293e-06 4.53366e-06 0)
(-1.01303e-05 5.00846e-06 0)
(-1.92648e-05 5.47888e-06 0)
(-2.92374e-05 5.94359e-06 0)
(-4.00475e-05 6.40232e-06 0)
(-5.1695e-05 6.85512e-06 0)
(-6.41763e-05 7.29985e-06 0)
(-7.74879e-05 7.7377e-06 0)
(-9.16251e-05 8.16697e-06 0)
(-0.000106582 8.58797e-06 0)
(-0.000122352 8.99977e-06 0)
(-0.000138928 9.40229e-06 0)
(-0.000156301 9.7952e-06 0)
(-0.000174463 1.0178e-05 0)
(-0.000193403 1.05507e-05 0)
(-0.000213112 1.09134e-05 0)
(-0.000233578 1.12655e-05 0)
(-0.00025479 1.1607e-05 0)
(-0.000276736 1.19381e-05 0)
(-0.000299405 1.22586e-05 0)
(-0.000322783 1.2568e-05 0)
(-0.000346856 1.28667e-05 0)
(-0.000371613 1.31548e-05 0)
(-0.000397038 1.34318e-05 0)
(-0.000423117 1.36977e-05 0)
(-0.000449837 1.3953e-05 0)
(-0.000477182 1.41975e-05 0)
(-0.000505137 1.44308e-05 0)
(-0.000533688 1.46536e-05 0)
(-0.000562819 1.4866e-05 0)
(-0.000592513 1.50673e-05 0)
(-0.000622755 1.5258e-05 0)
(-0.00065353 1.54385e-05 0)
(-0.00068482 1.56083e-05 0)
(-0.000716609 1.57674e-05 0)
(-0.00074888 1.5916e-05 0)
(-0.000781617 1.60545e-05 0)
(-0.000814803 1.6183e-05 0)
(-0.00084842 1.63012e-05 0)
(-0.000882451 1.64092e-05 0)
(-0.000916879 1.65074e-05 0)
(-0.000951685 1.65955e-05 0)
(-0.000986851 1.66735e-05 0)
(-0.00102236 1.67417e-05 0)
(-0.00105819 1.68001e-05 0)
(-0.00109433 1.68488e-05 0)
(-0.00113076 1.68874e-05 0)
(-0.00116745 1.69164e-05 0)
(-0.00120439 1.69356e-05 0)
(-0.00124155 1.69451e-05 0)
(-0.00127893 1.69448e-05 0)
(-0.00131649 1.69349e-05 0)
(-0.00135422 1.6915e-05 0)
(-0.00139209 1.68854e-05 0)
(-0.00143008 1.68458e-05 0)
(-0.00146817 1.67964e-05 0)
(-0.00150635 1.67369e-05 0)
(-0.00154457 1.66674e-05 0)
(-0.00158283 1.65876e-05 0)
(-0.00162109 1.64975e-05 0)
(-0.00165933 1.63971e-05 0)
(-0.00169753 1.62864e-05 0)
(-0.00173565 1.61648e-05 0)
(-0.00177368 1.60325e-05 0)
(-0.00181158 1.58893e-05 0)
(-0.00184933 1.57351e-05 0)
(-0.00188688 1.55696e-05 0)
(-0.00192423 1.53927e-05 0)
(-0.00196132 1.5204e-05 0)
(-0.00199814 1.50036e-05 0)
(-0.00203464 1.4791e-05 0)
(-0.0020708 1.45662e-05 0)
(-0.00210657 1.4329e-05 0)
(-0.00214193 1.40791e-05 0)
(-0.00217683 1.38164e-05 0)
(-0.00221123 1.35404e-05 0)
(-0.0022451 1.32511e-05 0)
(-0.00227839 1.29485e-05 0)
(-0.00231106 1.2632e-05 0)
(-0.00234308 1.23014e-05 0)
(-0.00237439 1.19568e-05 0)
(-0.00240494 1.15979e-05 0)
(-0.0024347 1.12244e-05 0)
(-0.00246362 1.08362e-05 0)
(-0.00249164 1.04332e-05 0)
(-0.00251872 1.00151e-05 0)
(-0.00254481 9.58186e-06 0)
(-0.00256985 9.1335e-06 0)
(-0.00259379 8.66994e-06 0)
(-0.00261659 8.19108e-06 0)
(-0.00263817 7.6968e-06 0)
(-0.00265849 7.18751e-06 0)
(-0.0026775 6.66295e-06 0)
(-0.00269513 6.12321e-06 0)
(-0.00271133 5.56836e-06 0)
(-0.00272604 4.99883e-06 0)
(-0.00273921 4.4148e-06 0)
(-0.00275078 3.81674e-06 0)
(-0.00276069 3.20475e-06 0)
(-0.00276888 2.57913e-06 0)
(-0.0027753 1.94068e-06 0)
(-0.0027799 1.28941e-06 0)
(-0.00278261 6.271e-07 0)
(1.97703e-07 -4.17304e-07 0)
(1.27508e-06 -1.98949e-06 0)
(3.61712e-06 -3.60874e-06 0)
(6.9409e-06 -4.94681e-06 0)
(1.10252e-05 -5.94002e-06 0)
(1.56577e-05 -6.58628e-06 0)
(2.06228e-05 -6.91495e-06 0)
(2.57138e-05 -6.96186e-06 0)
(3.07387e-05 -6.7638e-06 0)
(3.55242e-05 -6.35744e-06 0)
(3.99188e-05 -5.77152e-06 0)
(4.37834e-05 -5.03585e-06 0)
(4.69998e-05 -4.17126e-06 0)
(4.94611e-05 -3.19944e-06 0)
(5.10738e-05 -2.13836e-06 0)
(5.17582e-05 -1.00029e-06 0)
(5.14398e-05 1.98995e-07 0)
(5.00592e-05 1.44972e-06 0)
(4.75615e-05 2.74245e-06 0)
(4.38981e-05 4.0666e-06 0)
(3.9031e-05 5.41685e-06 0)
(3.2924e-05 6.78546e-06 0)
(2.55476e-05 8.16564e-06 0)
(1.68787e-05 9.55409e-06 0)
(6.89538e-06 1.09445e-05 0)
(-4.41832e-06 1.23331e-05 0)
(-1.70745e-05 1.37172e-05 0)
(-3.10841e-05 1.5093e-05 0)
(-4.64527e-05 1.64566e-05 0)
(-6.31844e-05 1.78072e-05 0)
(-8.12807e-05 1.9141e-05 0)
(-0.000100742 2.04562e-05 0)
(-0.000121563 2.17518e-05 0)
(-0.00014374 2.30247e-05 0)
(-0.000167267 2.42747e-05 0)
(-0.000192134 2.55002e-05 0)
(-0.000218332 2.67001e-05 0)
(-0.00024585 2.78729e-05 0)
(-0.000274674 2.90182e-05 0)
(-0.000304791 3.0135e-05 0)
(-0.000336187 3.12225e-05 0)
(-0.000368844 3.22805e-05 0)
(-0.000402745 3.33083e-05 0)
(-0.000437874 3.43055e-05 0)
(-0.00047421 3.52716e-05 0)
(-0.000511734 3.62067e-05 0)
(-0.000550426 3.71103e-05 0)
(-0.000590264 3.79822e-05 0)
(-0.000631227 3.88227e-05 0)
(-0.000673293 3.96312e-05 0)
(-0.000716438 4.04078e-05 0)
(-0.00076064 4.1153e-05 0)
(-0.000805873 4.18662e-05 0)
(-0.000852115 4.25474e-05 0)
(-0.00089934 4.31974e-05 0)
(-0.000947523 4.38159e-05 0)
(-0.000996638 4.44027e-05 0)
(-0.00104666 4.49583e-05 0)
(-0.00109756 4.5483e-05 0)
(-0.00114931 4.5977e-05 0)
(-0.00120189 4.64398e-05 0)
(-0.00125527 4.68721e-05 0)
(-0.00130942 4.72743e-05 0)
(-0.00136431 4.76465e-05 0)
(-0.00141992 4.79886e-05 0)
(-0.00147621 4.8301e-05 0)
(-0.00153316 4.85839e-05 0)
(-0.00159073 4.88372e-05 0)
(-0.00164891 4.90613e-05 0)
(-0.00170765 4.9256e-05 0)
(-0.00176692 4.94217e-05 0)
(-0.00182671 4.95586e-05 0)
(-0.00188696 4.96664e-05 0)
(-0.00194766 4.97454e-05 0)
(-0.00200877 4.97958e-05 0)
(-0.00207025 4.98175e-05 0)
(-0.00213208 4.98104e-05 0)
(-0.00219422 4.97743e-05 0)
(-0.00225663 4.97096e-05 0)
(-0.00231928 4.96157e-05 0)
(-0.00238213 4.94926e-05 0)
(-0.00244515 4.93403e-05 0)
(-0.00250829 4.91587e-05 0)
(-0.00257153 4.89472e-05 0)
(-0.00263481 4.87057e-05 0)
(-0.00269809 4.84339e-05 0)
(-0.00276135 4.81318e-05 0)
(-0.00282453 4.77989e-05 0)
(-0.00288758 4.74345e-05 0)
(-0.00295047 4.70386e-05 0)
(-0.00301315 4.66107e-05 0)
(-0.00307556 4.61502e-05 0)
(-0.00313767 4.56569e-05 0)
(-0.00319942 4.51298e-05 0)
(-0.00326075 4.45685e-05 0)
(-0.00332161 4.39729e-05 0)
(-0.00338196 4.33417e-05 0)
(-0.00344172 4.26747e-05 0)
(-0.00350085 4.19712e-05 0)
(-0.00355928 4.12309e-05 0)
(-0.00361695 4.04531e-05 0)
(-0.00367379 3.96368e-05 0)
(-0.00372975 3.87816e-05 0)
(-0.00378474 3.78872e-05 0)
(-0.00383871 3.69526e-05 0)
(-0.00389158 3.59775e-05 0)
(-0.00394329 3.49612e-05 0)
(-0.00399374 3.39031e-05 0)
(-0.00404287 3.28029e-05 0)
(-0.0040906 3.16601e-05 0)
(-0.00413685 3.04743e-05 0)
(-0.00418153 2.92446e-05 0)
(-0.00422456 2.79713e-05 0)
(-0.00426586 2.66542e-05 0)
(-0.00430534 2.5293e-05 0)
(-0.00434291 2.38874e-05 0)
(-0.00437849 2.24374e-05 0)
(-0.00441197 2.09438e-05 0)
(-0.00444327 1.94062e-05 0)
(-0.0044723 1.78252e-05 0)
(-0.00449896 1.62007e-05 0)
(-0.00452316 1.4534e-05 0)
(-0.0045448 1.28253e-05 0)
(-0.0045638 1.10761e-05 0)
(-0.00458005 9.28687e-06 0)
(-0.00459347 7.45894e-06 0)
(-0.00460396 5.59401e-06 0)
(-0.00461143 3.69269e-06 0)
(-0.0046158 1.7583e-06 0)
(3.13949e-07 -1.2468e-06 0)
(1.84053e-06 -4.17429e-06 0)
(4.94407e-06 -6.93744e-06 0)
(9.19848e-06 -9.20288e-06 0)
(1.42933e-05 -1.088e-05 0)
(1.99832e-05 -1.1967e-05 0)
(2.60136e-05 -1.24981e-05 0)
(3.21359e-05 -1.25262e-05 0)
(3.81172e-05 -1.2111e-05 0)
(4.37468e-05 -1.1307e-05 0)
(4.88281e-05 -1.0169e-05 0)
(5.31883e-05 -8.74233e-06 0)
(5.66703e-05 -7.06912e-06 0)
(5.91335e-05 -5.18693e-06 0)
(6.04563e-05 -3.12573e-06 0)
(6.05261e-05 -9.16071e-07 0)
(5.92473e-05 1.41877e-06 0)
(5.65349e-05 3.85832e-06 0)
(5.23122e-05 6.38064e-06 0)
(4.65158e-05 8.97135e-06 0)
(3.90878e-05 1.16148e-05 0)
(2.99783e-05 1.4297e-05 0)
(1.91467e-05 1.70077e-05 0)
(6.55621e-06 1.97358e-05 0)
(-7.82258e-06 2.24714e-05 0)
(-2.40136e-05 2.52071e-05 0)
(-4.20367e-05 2.79352e-05 0)
(-6.19075e-05 3.06485e-05 0)
(-8.36363e-05 3.33425e-05 0)
(-0.00010723 3.60108e-05 0)
(-0.000132693 3.86489e-05 0)
(-0.000160025 4.12523e-05 0)
(-0.000189225 4.38182e-05 0)
(-0.000220285 4.63414e-05 0)
(-0.000253199 4.88207e-05 0)
(-0.000287957 5.12524e-05 0)
(-0.000324546 5.36342e-05 0)
(-0.000362951 5.59644e-05 0)
(-0.000403157 5.82409e-05 0)
(-0.000445145 6.04617e-05 0)
(-0.000488896 6.2626e-05 0)
(-0.000534388 6.4732e-05 0)
(-0.000581598 6.67788e-05 0)
(-0.000630503 6.87657e-05 0)
(-0.000681077 7.06918e-05 0)
(-0.000733294 7.25563e-05 0)
(-0.000787127 7.43589e-05 0)
(-0.000842546 7.60992e-05 0)
(-0.000899523 7.7777e-05 0)
(-0.000958027 7.93919e-05 0)
(-0.00101803 8.09437e-05 0)
(-0.00107949 8.2433e-05 0)
(-0.00114239 8.38589e-05 0)
(-0.00120668 8.52216e-05 0)
(-0.00127234 8.65219e-05 0)
(-0.00133933 8.77597e-05 0)
(-0.00140761 8.89346e-05 0)
(-0.00147715 9.00473e-05 0)
(-0.00154792 9.10982e-05 0)
(-0.00161987 9.20876e-05 0)
(-0.00169296 9.30156e-05 0)
(-0.00176717 9.38824e-05 0)
(-0.00184245 9.4689e-05 0)
(-0.00191876 9.54354e-05 0)
(-0.00199607 9.61216e-05 0)
(-0.00207433 9.67482e-05 0)
(-0.0021535 9.73159e-05 0)
(-0.00223355 9.78244e-05 0)
(-0.00231442 9.82741e-05 0)
(-0.00239609 9.86653e-05 0)
(-0.0024785 9.89983e-05 0)
(-0.00256162 9.92731e-05 0)
(-0.0026454 9.949e-05 0)
(-0.00272979 9.96489e-05 0)
(-0.00281475 9.97503e-05 0)
(-0.00290024 9.97937e-05 0)
(-0.0029862 9.97791e-05 0)
(-0.00307259 9.97064e-05 0)
(-0.00315936 9.9576e-05 0)
(-0.00324646 9.93873e-05 0)
(-0.00333384 9.91396e-05 0)
(-0.00342145 9.8833e-05 0)
(-0.00350924 9.84675e-05 0)
(-0.00359715 9.80424e-05 0)
(-0.00368512 9.75567e-05 0)
(-0.0037731 9.70101e-05 0)
(-0.00386102 9.64023e-05 0)
(-0.00394884 9.57327e-05 0)
(-0.00403649 9.49998e-05 0)
(-0.0041239 9.42032e-05 0)
(-0.00421101 9.33426e-05 0)
(-0.00429776 9.24165e-05 0)
(-0.00438407 9.1424e-05 0)
(-0.00446987 9.0364e-05 0)
(-0.00455509 8.92354e-05 0)
(-0.00463966 8.80377e-05 0)
(-0.0047235 8.67689e-05 0)
(-0.00480652 8.54281e-05 0)
(-0.00488866 8.40145e-05 0)
(-0.00496981 8.25267e-05 0)
(-0.00504991 8.09636e-05 0)
(-0.00512885 7.93237e-05 0)
(-0.00520655 7.76058e-05 0)
(-0.00528291 7.58092e-05 0)
(-0.00535783 7.39322e-05 0)
(-0.00543122 7.19739e-05 0)
(-0.00550298 6.99334e-05 0)
(-0.00557299 6.78094e-05 0)
(-0.00564116 6.56013e-05 0)
(-0.00570738 6.33078e-05 0)
(-0.00577153 6.09283e-05 0)
(-0.0058335 5.84619e-05 0)
(-0.00589317 5.59082e-05 0)
(-0.00595043 5.32669e-05 0)
(-0.00600515 5.05375e-05 0)
(-0.00605721 4.77198e-05 0)
(-0.00610649 4.4814e-05 0)
(-0.00615286 4.18205e-05 0)
(-0.0061962 3.87395e-05 0)
(-0.00623637 3.55719e-05 0)
(-0.00627325 3.23185e-05 0)
(-0.00630671 2.89808e-05 0)
(-0.00633662 2.55597e-05 0)
(-0.00636285 2.20573e-05 0)
(-0.00638527 1.84761e-05 0)
(-0.00640375 1.48177e-05 0)
(-0.00641816 1.10859e-05 0)
(-0.00642838 7.28171e-06 0)
(-0.00643428 3.4111e-06 0)
(3.9501e-07 -2.33595e-06 0)
(2.25162e-06 -6.93982e-06 0)
(5.93512e-06 -1.10205e-05 0)
(1.08744e-05 -1.42982e-05 0)
(1.66887e-05 -1.66941e-05 0)
(2.309e-05 -1.82138e-05 0)
(2.97922e-05 -1.89057e-05 0)
(3.65142e-05 -1.88414e-05 0)
(4.29946e-05 -1.80985e-05 0)
(4.8987e-05 -1.67574e-05 0)
(5.4269e-05 -1.48919e-05 0)
(5.86344e-05 -1.25707e-05 0)
(6.18959e-05 -9.85708e-06 0)
(6.38881e-05 -6.80394e-06 0)
(6.44574e-05 -3.46278e-06 0)
(6.34707e-05 1.23351e-07 0)
(6.0808e-05 3.91681e-06 0)
(5.63611e-05 7.8815e-06 0)
(5.00371e-05 1.19884e-05 0)
(4.17522e-05 1.62101e-05 0)
(3.14336e-05 2.05214e-05 0)
(1.90186e-05 2.4902e-05 0)
(4.45186e-06 2.93327e-05 0)
(-1.23135e-05 3.37952e-05 0)
(-3.13166e-05 3.82761e-05 0)
(-5.25902e-05 4.27603e-05 0)
(-7.61615e-05 4.72352e-05 0)
(-0.000102051 5.16903e-05 0)
(-0.000130274 5.61158e-05 0)
(-0.000160843 6.05023e-05 0)
(-0.000193763 6.48424e-05 0)
(-0.000229038 6.91289e-05 0)
(-0.000266665 7.33542e-05 0)
(-0.000306639 7.75144e-05 0)
(-0.000348954 8.16029e-05 0)
(-0.000393596 8.56155e-05 0)
(-0.000440553 8.95481e-05 0)
(-0.000489807 9.3397e-05 0)
(-0.000541338 9.71588e-05 0)
(-0.000595126 0.000100831 0)
(-0.000651147 0.000104411 0)
(-0.000709375 0.000107896 0)
(-0.000769782 0.000111285 0)
(-0.000832339 0.000114576 0)
(-0.000897015 0.000117768 0)
(-0.000963777 0.000120858 0)
(-0.00103259 0.000123848 0)
(-0.00110342 0.000126735 0)
(-0.00117623 0.000129519 0)
(-0.00125099 0.000132199 0)
(-0.00132765 0.000134777 0)
(-0.00140617 0.00013725 0)
(-0.00148652 0.00013962 0)
(-0.00156864 0.000141885 0)
(-0.00165251 0.000144047 0)
(-0.00173807 0.000146106 0)
(-0.00182528 0.000148061 0)
(-0.00191409 0.000149913 0)
(-0.00200447 0.000151662 0)
(-0.00209636 0.00015331 0)
(-0.00218971 0.000154855 0)
(-0.00228448 0.0001563 0)
(-0.00238062 0.000157644 0)
(-0.00247807 0.000158888 0)
(-0.0025768 0.000160032 0)
(-0.00267675 0.000161078 0)
(-0.00277786 0.000162024 0)
(-0.00288009 0.000162873 0)
(-0.00298337 0.000163623 0)
(-0.00308767 0.000164277 0)
(-0.00319292 0.000164833 0)
(-0.00329907 0.000165292 0)
(-0.00340607 0.000165654 0)
(-0.00351385 0.00016592 0)
(-0.00362235 0.00016609 0)
(-0.00373153 0.000166163 0)
(-0.00384131 0.000166139 0)
(-0.00395164 0.000166018 0)
(-0.00406246 0.0001658 0)
(-0.00417369 0.000165485 0)
(-0.00428529 0.000165072 0)
(-0.00439717 0.00016456 0)
(-0.00450927 0.00016395 0)
(-0.00462152 0.000163239 0)
(-0.00473386 0.000162428 0)
(-0.0048462 0.000161516 0)
(-0.00495847 0.0001605 0)
(-0.0050706 0.000159381 0)
(-0.00518251 0.000158157 0)
(-0.00529411 0.000156827 0)
(-0.00540532 0.000155389 0)
(-0.00551605 0.000153842 0)
(-0.00562623 0.000152184 0)
(-0.00573575 0.000150413 0)
(-0.00584453 0.000148528 0)
(-0.00595246 0.000146527 0)
(-0.00605945 0.000144409 0)
(-0.0061654 0.00014217 0)
(-0.0062702 0.000139809 0)
(-0.00637375 0.000137325 0)
(-0.00647593 0.000134715 0)
(-0.00657663 0.000131977 0)
(-0.00667573 0.00012911 0)
(-0.00677312 0.000126111 0)
(-0.00686867 0.000122979 0)
(-0.00696225 0.000119711 0)
(-0.00705373 0.000116307 0)
(-0.00714298 0.000112764 0)
(-0.00722987 0.000109081 0)
(-0.00731426 0.000105256 0)
(-0.007396 0.000101288 0)
(-0.00747494 9.71757e-05 0)
(-0.00755095 9.29185e-05 0)
(-0.00762387 8.85158e-05 0)
(-0.00769354 8.39671e-05 0)
(-0.00775981 7.92721e-05 0)
(-0.00782253 7.44307e-05 0)
(-0.00788153 6.94439e-05 0)
(-0.00793665 6.43123e-05 0)
(-0.00798773 5.9037e-05 0)
(-0.0080346 5.36197e-05 0)
(-0.0080771 4.80625e-05 0)
(-0.00811507 4.23679e-05 0)
(-0.00814834 3.65386e-05 0)
(-0.00817675 3.05786e-05 0)
(-0.00820013 2.44907e-05 0)
(-0.00821832 1.82813e-05 0)
(-0.00823116 1.19531e-05 0)
(-0.0082385 5.51387e-06 0)
(4.46655e-07 -3.61542e-06 0)
(2.51982e-06 -1.013e-05 0)
(6.58516e-06 -1.56533e-05 0)
(1.19682e-05 -1.99892e-05 0)
(1.82181e-05 -2.30966e-05 0)
(2.50104e-05 -2.50039e-05 0)
(3.20275e-05 -2.57816e-05 0)
(3.89639e-05 -2.55197e-05 0)
(4.55301e-05 -2.43209e-05 0)
(5.14597e-05 -2.22854e-05 0)
(5.65024e-05 -1.95107e-05 0)
(6.04279e-05 -1.60897e-05 0)
(6.30281e-05 -1.2103e-05 0)
(6.41092e-05 -7.62848e-06 0)
(6.3499e-05 -2.73351e-06 0)
(6.10411e-05 2.52185e-06 0)
(5.65938e-05 8.08126e-06 0)
(5.00324e-05 1.38967e-05 0)
(4.12444e-05 1.99251e-05 0)
(3.01298e-05 2.6126e-05 0)
(1.66014e-05 3.24655e-05 0)
(5.82405e-07 3.89121e-05 0)
(-1.79949e-05 4.54364e-05 0)
(-3.91875e-05 5.20145e-05 0)
(-6.30446e-05 5.86234e-05 0)
(-8.96086e-05 6.52423e-05 0)
(-0.000118912 7.18531e-05 0)
(-0.000150984 7.84395e-05 0)
(-0.000185845 8.49854e-05 0)
(-0.000223509 9.14787e-05 0)
(-0.000263987 9.79066e-05 0)
(-0.000307284 0.000104259 0)
(-0.000353401 0.000110524 0)
(-0.000402332 0.000116696 0)
(-0.000454071 0.000122765 0)
(-0.000508605 0.000128724 0)
(-0.00056592 0.000134567 0)
(-0.000625996 0.000140289 0)
(-0.000688812 0.000145884 0)
(-0.000754344 0.000151347 0)
(-0.000822564 0.000156676 0)
(-0.000893444 0.000161866 0)
(-0.00096695 0.000166914 0)
(-0.00104305 0.000171818 0)
(-0.0011217 0.000176576 0)
(-0.00120288 0.000181185 0)
(-0.00128653 0.000185645 0)
(-0.00137262 0.000189953 0)
(-0.0014611 0.000194109 0)
(-0.00155193 0.000198112 0)
(-0.00164506 0.000201962 0)
(-0.00174045 0.000205657 0)
(-0.00183805 0.000209199 0)
(-0.0019378 0.000212586 0)
(-0.00203966 0.000215819 0)
(-0.00214357 0.000218898 0)
(-0.00224948 0.000221824 0)
(-0.00235733 0.000224596 0)
(-0.00246708 0.000227215 0)
(-0.00257866 0.000229682 0)
(-0.00269202 0.000231996 0)
(-0.00280709 0.00023416 0)
(-0.00292383 0.000236174 0)
(-0.00304217 0.000238038 0)
(-0.00316205 0.000239753 0)
(-0.00328341 0.00024132 0)
(-0.00340618 0.00024274 0)
(-0.00353031 0.000244012 0)
(-0.00365573 0.000245137 0)
(-0.00378237 0.000246117 0)
(-0.00391017 0.000246951 0)
(-0.00403906 0.00024764 0)
(-0.00416898 0.000248183 0)
(-0.00429985 0.000248582 0)
(-0.0044316 0.000248836 0)
(-0.00456416 0.000248944 0)
(-0.00469746 0.000248908 0)
(-0.00483143 0.000248726 0)
(-0.00496598 0.000248398 0)
(-0.00510104 0.000247924 0)
(-0.00523653 0.000247302 0)
(-0.00537236 0.000246533 0)
(-0.00550847 0.000245615 0)
(-0.00564475 0.000244547 0)
(-0.00578113 0.000243327 0)
(-0.00591751 0.000241955 0)
(-0.00605381 0.000240428 0)
(-0.00618992 0.000238745 0)
(-0.00632576 0.000236905 0)
(-0.00646122 0.000234905 0)
(-0.00659621 0.000232743 0)
(-0.00673061 0.000230417 0)
(-0.00686432 0.000227925 0)
(-0.00699723 0.000225264 0)
(-0.00712923 0.000222431 0)
(-0.00726019 0.000219423 0)
(-0.00739001 0.000216239 0)
(-0.00751855 0.000212875 0)
(-0.00764569 0.000209329 0)
(-0.00777129 0.000205597 0)
(-0.00789523 0.000201676 0)
(-0.00801736 0.000197565 0)
(-0.00813754 0.000193259 0)
(-0.00825563 0.000188755 0)
(-0.00837147 0.000184053 0)
(-0.00848492 0.000179147 0)
(-0.00859581 0.000174037 0)
(-0.00870399 0.000168719 0)
(-0.00880928 0.000163192 0)
(-0.00891153 0.000157453 0)
(-0.00901055 0.0001515 0)
(-0.00910618 0.000145332 0)
(-0.00919823 0.000138948 0)
(-0.00928652 0.000132346 0)
(-0.00937086 0.000125525 0)
(-0.00945108 0.000118486 0)
(-0.00952696 0.00011123 0)
(-0.00959833 0.000103756 0)
(-0.00966499 9.60665e-05 0)
(-0.00972674 8.81625e-05 0)
(-0.00978338 8.0047e-05 0)
(-0.00983472 7.17232e-05 0)
(-0.00988055 6.31949e-05 0)
(-0.00992068 5.44657e-05 0)
(-0.00995491 4.55419e-05 0)
(-0.00998304 3.64282e-05 0)
(-0.0100049 2.71332e-05 0)
(-0.0100202 1.76619e-05 0)
(-0.0100289 8.02456e-06 0)
(4.72412e-07 -5.00866e-06 0)
(2.65968e-06 -1.35857e-05 0)
(6.92222e-06 -2.06225e-05 0)
(1.25138e-05 -2.60246e-05 0)
(1.89311e-05 -2.98031e-05 0)
(2.58136e-05 -3.20236e-05 0)
(3.28191e-05 -3.27826e-05 0)
(3.96162e-05 -3.21981e-05 0)
(4.58978e-05 -3.03935e-05 0)
(5.13754e-05 -2.7494e-05 0)
(5.57792e-05 -2.36216e-05 0)
(5.88621e-05 -1.88882e-05 0)
(6.03925e-05 -1.34008e-05 0)
(6.01601e-05 -7.25608e-06 0)
(5.79729e-05 -5.40396e-07 0)
(5.36548e-05 6.665e-06 0)
(4.70481e-05 1.42887e-05 0)
(3.80104e-05 2.22666e-05 0)
(2.64126e-05 3.05389e-05 0)
(1.21404e-05 3.90543e-05 0)
(-4.90679e-06 4.77654e-05 0)
(-2.48204e-05 5.66291e-05 0)
(-4.7678e-05 6.56071e-05 0)
(-7.35476e-05 7.46651e-05 0)
(-0.000102489 8.37709e-05 0)
(-0.000134551 9.28969e-05 0)
(-0.000169776 0.000102018 0)
(-0.000208198 0.00011111 0)
(-0.000249843 0.000120153 0)
(-0.00029473 0.000129128 0)
(-0.000342875 0.000138018 0)
(-0.000394285 0.000146807 0)
(-0.000448962 0.000155482 0)
(-0.000506904 0.00016403 0)
(-0.000568103 0.000172441 0)
(-0.000632548 0.000180703 0)
(-0.000700223 0.000188808 0)
(-0.000771109 0.000196748 0)
(-0.000845181 0.000204516 0)
(-0.000922414 0.000212104 0)
(-0.00100278 0.000219508 0)
(-0.00108624 0.000226722 0)
(-0.00117276 0.000233742 0)
(-0.0012623 0.000240563 0)
(-0.00135483 0.000247184 0)
(-0.00145029 0.0002536 0)
(-0.00154865 0.00025981 0)
(-0.00164986 0.00026581 0)
(-0.00175386 0.000271601 0)
(-0.0018606 0.00027718 0)
(-0.00197004 0.000282547 0)
(-0.00208212 0.000287701 0)
(-0.00219678 0.000292641 0)
(-0.00231396 0.000297367 0)
(-0.0024336 0.000301879 0)
(-0.00255565 0.000306178 0)
(-0.00268005 0.000310263 0)
(-0.00280672 0.000314134 0)
(-0.00293561 0.000317793 0)
(-0.00306665 0.00032124 0)
(-0.00319977 0.000324475 0)
(-0.00333491 0.0003275 0)
(-0.003472 0.000330315 0)
(-0.00361097 0.000332922 0)
(-0.00375174 0.00033532 0)
(-0.00389425 0.000337512 0)
(-0.00403842 0.000339497 0)
(-0.00418418 0.000341277 0)
(-0.00433145 0.000342851 0)
(-0.00448016 0.000344222 0)
(-0.00463023 0.000345389 0)
(-0.00478158 0.000346352 0)
(-0.00493414 0.000347112 0)
(-0.00508781 0.00034767 0)
(-0.00524251 0.000348024 0)
(-0.00539817 0.000348175 0)
(-0.00555469 0.000348122 0)
(-0.00571199 0.000347865 0)
(-0.00586997 0.000347404 0)
(-0.00602855 0.000346737 0)
(-0.00618763 0.000345864 0)
(-0.00634712 0.000344783 0)
(-0.00650692 0.000343494 0)
(-0.00666692 0.000341994 0)
(-0.00682703 0.000340282 0)
(-0.00698714 0.000338355 0)
(-0.00714715 0.000336212 0)
(-0.00730693 0.00033385 0)
(-0.00746638 0.000331267 0)
(-0.00762539 0.00032846 0)
(-0.00778382 0.000325427 0)
(-0.00794157 0.000322163 0)
(-0.0080985 0.000318665 0)
(-0.00825447 0.000314931 0)
(-0.00840937 0.000310957 0)
(-0.00856305 0.000306738 0)
(-0.00871536 0.000302272 0)
(-0.00886617 0.000297554 0)
(-0.00901532 0.00029258 0)
(-0.00916266 0.000287347 0)
(-0.00930803 0.00028185 0)
(-0.00945127 0.000276085 0)
(-0.00959221 0.000270049 0)
(-0.00973068 0.000263737 0)
(-0.00986651 0.000257146 0)
(-0.00999951 0.000250272 0)
(-0.0101295 0.000243112 0)
(-0.0102563 0.000235662 0)
(-0.0103797 0.00022792 0)
(-0.0104995 0.000219882 0)
(-0.0106155 0.000211546 0)
(-0.0107275 0.000202909 0)
(-0.0108353 0.000193971 0)
(-0.0109387 0.000184729 0)
(-0.0110375 0.000175183 0)
(-0.0111313 0.000165334 0)
(-0.0112201 0.00015518 0)
(-0.0113036 0.000144724 0)
(-0.0113816 0.000133968 0)
(-0.0114538 0.000122914 0)
(-0.01152 0.000111565 0)
(-0.01158 9.99261e-05 0)
(-0.0116335 8.8003e-05 0)
(-0.0116803 7.58009e-05 0)
(-0.0117202 6.33282e-05 0)
(-0.0117529 5.05917e-05 0)
(-0.0117783 3.7603e-05 0)
(-0.011796 2.437e-05 0)
(-0.0118059 1.0906e-05 0)
(4.7925e-07 -6.45275e-06 0)
(2.69054e-06 -1.71582e-05 0)
(6.98086e-06 -2.5724e-05 0)
(1.25634e-05 -3.21595e-05 0)
(1.88959e-05 -3.6538e-05 0)
(2.55915e-05 -3.89686e-05 0)
(3.22809e-05 -3.9584e-05 0)
(3.86163e-05 -3.85289e-05 0)
(4.42716e-05 -3.59537e-05 0)
(4.89415e-05 -3.20094e-05 0)
(5.23433e-05 -2.6839e-05 0)
(5.42102e-05 -2.05801e-05 0)
(5.4297e-05 -1.33616e-05 0)
(5.23779e-05 -5.29973e-06 0)
(4.82434e-05 3.49536e-06 0)
(4.17028e-05 1.29257e-05 0)
(3.25832e-05 2.29017e-05 0)
(2.0726e-05 3.33404e-05 0)
(5.98924e-06 4.41685e-05 0)
(-1.17543e-05 5.53189e-05 0)
(-3.26201e-05 6.67307e-05 0)
(-5.67091e-05 7.83486e-05 0)
(-8.41107e-05 9.0124e-05 0)
(-0.000114904 0.00010201 0)
(-0.000149156 0.000113967 0)
(-0.000186926 0.000125958 0)
(-0.000228262 0.000137948 0)
(-0.000273204 0.000149907 0)
(-0.000321786 0.000161809 0)
(-0.000374031 0.000173627 0)
(-0.000429958 0.000185339 0)
(-0.000489577 0.000196925 0)
(-0.000552895 0.000208366 0)
(-0.00061991 0.000219645 0)
(-0.000690615 0.000230747 0)
(-0.000765001 0.000241659 0)
(-0.000843051 0.000252368 0)
(-0.000924744 0.000262863 0)
(-0.00101006 0.000273134 0)
(-0.00109896 0.000283172 0)
(-0.00119142 0.00029297 0)
(-0.0012874 0.00030252 0)
(-0.00138687 0.000311816 0)
(-0.00148977 0.000320854 0)
(-0.00159607 0.000329627 0)
(-0.00170572 0.000338133 0)
(-0.00181867 0.000346367 0)
(-0.00193486 0.000354327 0)
(-0.00205424 0.000362011 0)
(-0.00217676 0.000369416 0)
(-0.00230234 0.000376541 0)
(-0.00243094 0.000383385 0)
(-0.00256249 0.000389948 0)
(-0.00269692 0.000396227 0)
(-0.00283416 0.000402224 0)
(-0.00297416 0.000407938 0)
(-0.00311683 0.000413369 0)
(-0.00326211 0.000418518 0)
(-0.00340993 0.000423385 0)
(-0.0035602 0.000427971 0)
(-0.00371286 0.000432277 0)
(-0.00386783 0.000436303 0)
(-0.00402503 0.000440051 0)
(-0.00418438 0.000443521 0)
(-0.0043458 0.000446715 0)
(-0.00450921 0.000449634 0)
(-0.00467452 0.000452277 0)
(-0.00484165 0.000454648 0)
(-0.00501052 0.000456745 0)
(-0.00518103 0.000458571 0)
(-0.0053531 0.000460125 0)
(-0.00552663 0.000461407 0)
(-0.00570154 0.000462419 0)
(-0.00587773 0.00046316 0)
(-0.00605511 0.00046363 0)
(-0.00623357 0.000463829 0)
(-0.00641303 0.000463756 0)
(-0.00659337 0.000463411 0)
(-0.0067745 0.000462792 0)
(-0.0069563 0.000461899 0)
(-0.00713868 0.00046073 0)
(-0.00732152 0.000459285 0)
(-0.00750471 0.00045756 0)
(-0.00768813 0.000455553 0)
(-0.00787167 0.000453264 0)
(-0.0080552 0.000450688 0)
(-0.0082386 0.000447822 0)
(-0.00842175 0.000444665 0)
(-0.00860451 0.000441212 0)
(-0.00878674 0.00043746 0)
(-0.00896832 0.000433405 0)
(-0.00914909 0.000429043 0)
(-0.00932892 0.000424369 0)
(-0.00950765 0.000419379 0)
(-0.00968513 0.000414068 0)
(-0.0098612 0.000408432 0)
(-0.0100357 0.000402465 0)
(-0.0102085 0.000396162 0)
(-0.0103793 0.000389519 0)
(-0.0105481 0.000382529 0)
(-0.0107146 0.000375188 0)
(-0.0108786 0.000367491 0)
(-0.01104 0.000359432 0)
(-0.0111985 0.000351005 0)
(-0.011354 0.000342208 0)
(-0.0115063 0.000333034 0)
(-0.0116551 0.000323479 0)
(-0.0118002 0.000313538 0)
(-0.0119414 0.000303209 0)
(-0.0120784 0.000292487 0)
(-0.0122112 0.000281368 0)
(-0.0123393 0.00026985 0)
(-0.0124626 0.000257931 0)
(-0.0125808 0.00024561 0)
(-0.0126937 0.000232885 0)
(-0.012801 0.000219756 0)
(-0.0129024 0.000206225 0)
(-0.0129978 0.000192292 0)
(-0.0130869 0.000177962 0)
(-0.0131693 0.000163235 0)
(-0.0132448 0.000148119 0)
(-0.0133132 0.000132619 0)
(-0.0133742 0.000116742 0)
(-0.0134276 0.000100495 0)
(-0.013473 8.38901e-05 0)
(-0.0135102 6.69362e-05 0)
(-0.0135389 4.96482e-05 0)
(-0.0135589 3.20377e-05 0)
(-0.01357 1.41212e-05 0)
(4.69887e-07 -7.89471e-06 0)
(2.63037e-06 -2.07147e-05 0)
(6.79869e-06 -3.07694e-05 0)