/*--------------------------------*- C++ -*----------------------------------*\
| =========                 |                                                 |
| \\      /  F ield         | OpenFOAM: The Open Source CFD Toolbox           |
|  \\    /   O peration     | Version:  2112                                  |
|   \\  /    A nd           | Website:  www.openfoam.com                      |
|    \\/     M anipulation  |                                                 |
\*---------------------------------------------------------------------------*/
FoamFile
{
    version     2.0;
    format      ascii;
    arch        "LSB;label=32;scalar=64";
    class       volScalarField;
    location    "5.96";
    object      p;
}
// * * * * * * * * * * * * * * * * * * * * * * * * * * * * * * * * * * * * * //

dimensions      [0 2 -2 0 0 0 0];

internalField   nonuniform List<scalar> 
25600
(
-6.06673e-14
5.76634e-10
1.02772e-09
1.31504e-09
1.50001e-09
1.61312e-09
1.66115e-09
1.66117e-09
1.63082e-09
1.58528e-09
1.53786e-09
1.4993e-09
1.47704e-09
1.47493e-09
1.49372e-09
1.53173e-09
1.58585e-09
1.65223e-09
1.72689e-09
1.80609e-09
1.88651e-09
1.96533e-09
2.04019e-09
2.10919e-09
2.17082e-09
2.22387e-09
2.26744e-09
2.30077e-09
2.32336e-09
2.3351e-09
2.33572e-09
2.32519e-09
2.30362e-09
2.27122e-09
2.22827e-09
2.17517e-09
2.11233e-09
2.04025e-09
1.95945e-09
1.87049e-09
1.77394e-09
1.67041e-09
1.56047e-09
1.44474e-09
1.32378e-09
1.19819e-09
1.06851e-09
9.35299e-10
7.99068e-10
6.60317e-10
5.19523e-10
3.77135e-10
2.33581e-10
8.92607e-11
-5.54489e-11
-2.00195e-10
-3.44651e-10
-4.88509e-10
-6.31487e-10
-7.73322e-10
-9.13773e-10
-1.05262e-09
-1.18965e-09
-1.32469e-09
-1.45757e-09
-1.58812e-09
-1.71623e-09
-1.84175e-09
-1.96458e-09
-2.08463e-09
-2.2018e-09
-2.31603e-09
-2.42725e-09
-2.53541e-09
-2.64046e-09
-2.74238e-09
-2.84113e-09
-2.9367e-09
-3.02908e-09
-3.11826e-09
-3.20426e-09
-3.28708e-09
-3.36674e-09
-3.44327e-09
-3.51668e-09
-3.58702e-09
-3.65432e-09
-3.71862e-09
-3.77998e-09
-3.83843e-09
-3.89404e-09
-3.94686e-09
-3.99695e-09
-4.04437e-09
-4.0892e-09
-4.13149e-09
-4.17131e-09
-4.20874e-09
-4.24386e-09
-4.27672e-09
-4.30741e-09
-4.33601e-09
-4.36259e-09
-4.38723e-09
-4.41e-09
-4.43098e-09
-4.45026e-09
-4.4679e-09
-4.48398e-09
-4.49859e-09
-4.51178e-09
-4.52365e-09
-4.53426e-09
-4.54368e-09
-4.55199e-09
-4.55925e-09
-4.56554e-09
-4.57091e-09
-4.57543e-09
-4.57917e-09
-4.58219e-09
-4.58453e-09
-4.58627e-09
-4.58745e-09
-4.58813e-09
-4.58835e-09
-4.58816e-09
-4.58762e-09
-4.58675e-09
-4.58561e-09
-4.58423e-09
-4.58264e-09
-4.58089e-09
-4.57899e-09
-4.57699e-09
-4.57491e-09
-4.57276e-09
-4.57058e-09
-4.56839e-09
-4.5662e-09
-4.56403e-09
-4.56189e-09
-4.5598e-09
-4.55776e-09
-4.55579e-09
-4.55388e-09
-4.55206e-09
-4.55032e-09
-4.54865e-09
-4.54708e-09
-4.54558e-09
-4.54417e-09
-4.54283e-09
-4.54157e-09
-4.54038e-09
-4.53925e-09
-4.53818e-09
-4.53716e-09
-4.53618e-09
-4.53523e-09
-4.5343e-09
-4.53339e-09
-4.53248e-09
-4.53156e-09
-4.53062e-09
-4.52965e-09
-4.52864e-09
-4.52758e-09
-4.52646e-09
-4.52526e-09
-4.52398e-09
-4.5226e-09
-4.52112e-09
-4.51952e-09
-4.51779e-09
-4.51592e-09
-4.51391e-09
-4.51174e-09
-4.5094e-09
-4.50689e-09
-4.5042e-09
-4.50133e-09
-4.49825e-09
-4.49497e-09
-4.49148e-09
-4.48778e-09
-4.48386e-09
-4.47971e-09
-4.47534e-09
-4.47073e-09
-4.46588e-09
-4.4608e-09
-4.45547e-09
-4.44991e-09
-4.44409e-09
-4.43804e-09
-4.43174e-09
-4.42519e-09
-4.4184e-09
-4.41136e-09
-4.40408e-09
-4.39656e-09
-4.38881e-09
-4.38081e-09
-4.37259e-09
-4.36413e-09
-4.35544e-09
-4.34653e-09
-4.3374e-09
-4.32806e-09
-4.3185e-09
-4.30873e-09
-4.29876e-09
-4.2886e-09
-4.27824e-09
-4.26769e-09
-4.25696e-09
-4.24605e-09
-4.23497e-09
-4.22372e-09
-4.21231e-09
-4.20074e-09
-4.18901e-09
-4.17714e-09
-4.16512e-09
-4.15296e-09
-4.14066e-09
-4.12823e-09
-4.11567e-09
-4.10298e-09
-4.09017e-09
-4.07723e-09
-4.06417e-09
-4.05098e-09
-4.03766e-09
-4.02422e-09
-4.01065e-09
-3.99695e-09
-3.9831e-09
-3.9691e-09
-3.95495e-09
-3.94063e-09
-3.92613e-09
-3.91143e-09
-3.89652e-09
-3.88138e-09
-3.86598e-09
-3.85029e-09
-3.83429e-09
-3.81794e-09
-3.8012e-09
-3.78403e-09
-3.76637e-09
-3.74818e-09
-3.72938e-09
-3.70992e-09
-3.68971e-09
-3.66867e-09
-3.6467e-09
-3.62371e-09
-3.59957e-09
-3.57416e-09
-3.54735e-09
-3.51899e-09
-3.4889e-09
-3.45691e-09
-3.42282e-09
-3.38643e-09
-3.34751e-09
-3.30581e-09
-3.26107e-09
-3.213e-09
-3.16132e-09
-3.1057e-09
-3.0458e-09
-2.98129e-09
-2.9118e-09
-2.83694e-09
-2.75634e-09
-2.66961e-09
-2.57634e-09
-2.47616e-09
-2.36867e-09
-2.25352e-09
-2.13037e-09
-1.9989e-09
-1.85885e-09
-1.71003e-09
-1.55229e-09
-1.38557e-09
-1.20993e-09
-1.02554e-09
-8.32704e-10
-6.31914e-10
-4.23858e-10
-2.09471e-10
1.00238e-11
2.33058e-10
4.57657e-10
6.81366e-10
9.01189e-10
1.11352e-09
1.31411e-09
1.49803e-09
1.65977e-09
1.7933e-09
1.89231e-09
1.95046e-09
1.96168e-09
1.92042e-09
1.82165e-09
1.66122e-09
1.44111e-09
1.15826e-09
8.17862e-10
4.33706e-10
2.66409e-11
-3.51416e-10
-5.7194e-10
-4.61164e-10
6.75287e-11
4.17023e-10
7.16164e-10
9.42948e-10
1.13165e-09
1.27003e-09
1.34728e-09
1.3765e-09
1.3749e-09
1.35709e-09
1.33618e-09
1.32293e-09
1.32469e-09
1.34517e-09
1.3849e-09
1.44208e-09
1.51349e-09
1.59531e-09
1.68362e-09
1.77483e-09
1.86574e-09
1.95368e-09
2.03647e-09
2.11234e-09
2.17988e-09
2.23802e-09
2.28594e-09
2.32309e-09
2.34901e-09
2.3634e-09
2.36625e-09
2.35759e-09
2.33756e-09
2.30641e-09
2.26447e-09
2.21215e-09
2.1499e-09
2.07824e-09
1.99773e-09
1.90892e-09
1.81243e-09
1.70885e-09
1.5988e-09
1.48287e-09
1.36167e-09
1.23578e-09
1.10576e-09
9.72163e-10
8.35516e-10
6.96321e-10
5.55057e-10
4.12178e-10
2.68111e-10
1.23262e-10
-2.19932e-11
-1.67299e-10
-3.12326e-10
-4.56767e-10
-6.00339e-10
-7.42777e-10
-8.8384e-10
-1.0233e-09
-1.16096e-09
-1.29663e-09
-1.43015e-09
-1.56134e-09
-1.69009e-09
-1.81626e-09
-1.93974e-09
-2.06044e-09
-2.17827e-09
-2.29315e-09
-2.40502e-09
-2.51383e-09
-2.61953e-09
-2.7221e-09
-2.82149e-09
-2.9177e-09
-3.01072e-09
-3.10054e-09
-3.18716e-09
-3.2706e-09
-3.35088e-09
-3.42801e-09
-3.50202e-09
-3.57294e-09
-3.64082e-09
-3.7057e-09
-3.76761e-09
-3.82661e-09
-3.88276e-09
-3.9361e-09
-3.98671e-09
-4.03463e-09
-4.07994e-09
-4.12271e-09
-4.16299e-09
-4.20087e-09
-4.23642e-09
-4.2697e-09
-4.3008e-09
-4.32979e-09
-4.35674e-09
-4.38174e-09
-4.40486e-09
-4.42618e-09
-4.44577e-09
-4.46371e-09
-4.48009e-09
-4.49496e-09
-4.50842e-09
-4.52053e-09
-4.53137e-09
-4.54102e-09
-4.54953e-09
-4.55698e-09
-4.56344e-09
-4.56898e-09
-4.57365e-09
-4.57753e-09
-4.58067e-09
-4.58314e-09
-4.58498e-09
-4.58626e-09
-4.58702e-09
-4.58731e-09
-4.5872e-09
-4.58671e-09
-4.58589e-09
-4.58479e-09
-4.58344e-09
-4.58188e-09
-4.58014e-09
-4.57826e-09
-4.57627e-09
-4.57418e-09
-4.57204e-09
-4.56985e-09
-4.56764e-09
-4.56543e-09
-4.56324e-09
-4.56108e-09
-4.55896e-09
-4.5569e-09
-4.5549e-09
-4.55296e-09
-4.55111e-09
-4.54933e-09
-4.54764e-09
-4.54602e-09
-4.5445e-09
-4.54305e-09
-4.54168e-09
-4.54039e-09
-4.53916e-09
-4.538e-09
-4.5369e-09
-4.53585e-09
-4.53484e-09
-4.53387e-09
-4.53292e-09
-4.53199e-09
-4.53106e-09
-4.53012e-09
-4.52917e-09
-4.52819e-09
-4.52717e-09
-4.5261e-09
-4.52497e-09
-4.52377e-09
-4.52249e-09
-4.52111e-09
-4.51963e-09
-4.51803e-09
-4.51631e-09
-4.51446e-09
-4.51246e-09
-4.5103e-09
-4.50798e-09
-4.50549e-09
-4.50283e-09
-4.49997e-09
-4.49692e-09
-4.49367e-09
-4.49021e-09
-4.48653e-09
-4.48264e-09
-4.47853e-09
-4.47419e-09
-4.46961e-09
-4.4648e-09
-4.45976e-09
-4.45447e-09
-4.44894e-09
-4.44317e-09
-4.43715e-09
-4.43089e-09
-4.42439e-09
-4.41764e-09
-4.41065e-09
-4.40341e-09
-4.39594e-09
-4.38823e-09
-4.38028e-09
-4.37209e-09
-4.36368e-09
-4.35504e-09
-4.34618e-09
-4.33709e-09
-4.32779e-09
-4.31828e-09
-4.30856e-09
-4.29864e-09
-4.28852e-09
-4.27821e-09
-4.2677e-09
-4.25702e-09
-4.24616e-09
-4.23512e-09
-4.22391e-09
-4.21255e-09
-4.20102e-09
-4.18934e-09
-4.17751e-09
-4.16554e-09
-4.15343e-09
-4.14118e-09
-4.1288e-09
-4.11628e-09
-4.10364e-09
-4.09088e-09
-4.07799e-09
-4.06498e-09
-4.05184e-09
-4.03858e-09
-4.02519e-09
-4.01168e-09
-3.99803e-09
-3.98424e-09
-3.97031e-09
-3.95622e-09
-3.94197e-09
-3.92754e-09
-3.91292e-09
-3.89808e-09
-3.88302e-09
-3.86771e-09
-3.85211e-09
-3.83621e-09
-3.81997e-09
-3.80334e-09
-3.78628e-09
-3.76876e-09
-3.7507e-09
-3.73206e-09
-3.71275e-09
-3.69272e-09
-3.67186e-09
-3.6501e-09
-3.62733e-09
-3.60343e-09
-3.57828e-09
-3.55175e-09
-3.52369e-09
-3.49393e-09
-3.4623e-09
-3.4286e-09
-3.39263e-09
-3.35416e-09
-3.31294e-09
-3.26873e-09
-3.22123e-09
-3.17016e-09
-3.11519e-09
-3.056e-09
-2.99224e-09
-2.92355e-09
-2.84955e-09
-2.76986e-09
-2.68408e-09
-2.59183e-09
-2.49271e-09
-2.38635e-09
-2.27236e-09
-2.15042e-09
-2.0202e-09
-1.88144e-09
-1.73393e-09
-1.57752e-09
-1.41215e-09
-1.23784e-09
-1.05474e-09
-8.63149e-10
-6.63518e-10
-4.56496e-10
-2.42971e-10
-2.4108e-11
1.98595e-10
4.2324e-10
6.47467e-10
8.68377e-10
1.08247e-09
1.2856e-09
1.47297e-09
1.63917e-09
1.77835e-09
1.88442e-09
1.95141e-09
1.97393e-09
1.94763e-09
1.86981e-09
1.73954e-09
1.55456e-09
1.31988e-09
1.04344e-09
7.39972e-10
4.23818e-10
1.09577e-10
-1.31157e-10
-1.62222e-10
1.09971e-10
3.03973e-10
4.7958e-10
6.35564e-10
8.07391e-10
9.58555e-10
1.05582e-09
1.10787e-09
1.13162e-09
1.14032e-09
1.14606e-09
1.15898e-09
1.18596e-09
1.23028e-09
1.29215e-09
1.36954e-09
1.45915e-09
1.55713e-09
1.65966e-09
1.76324e-09
1.86484e-09
1.96197e-09
2.05257e-09
2.13506e-09
2.20817e-09
2.27094e-09
2.32267e-09
2.36286e-09
2.3913e-09
2.40769e-09
2.41207e-09
2.40453e-09
2.38529e-09
2.35464e-09
2.31295e-09
2.26068e-09
2.19831e-09
2.12639e-09
2.04549e-09
1.95621e-09
1.85916e-09
1.75496e-09
1.64423e-09
1.52759e-09
1.40564e-09
1.27898e-09
1.14817e-09
1.01377e-09
8.76315e-10
7.36303e-10
5.94218e-10
4.50516e-10
3.05626e-10
1.59955e-10
1.38795e-11
-1.32245e-10
-2.78087e-10
-4.23341e-10
-5.67722e-10
-7.10966e-10
-8.52829e-10
-9.9309e-10
-1.13154e-09
-1.268e-09
-1.4023e-09
-1.53428e-09
-1.6638e-09
-1.79074e-09
-1.91499e-09
-2.03644e-09
-2.15502e-09
-2.27065e-09
-2.38326e-09
-2.4928e-09
-2.59923e-09
-2.7025e-09
-2.80261e-09
-2.89952e-09
-2.99322e-09
-3.08372e-09
-3.17101e-09
-3.2551e-09
-3.33602e-09
-3.41378e-09
-3.48842e-09
-3.55995e-09
-3.62842e-09
-3.69388e-09
-3.75636e-09
-3.81592e-09
-3.8726e-09
-3.92647e-09
-3.97758e-09
-4.026e-09
-4.07179e-09
-4.11502e-09
-4.15575e-09
-4.19406e-09
-4.23002e-09
-4.2637e-09
-4.29518e-09
-4.32454e-09
-4.35184e-09
-4.37717e-09
-4.40061e-09
-4.42223e-09
-4.4421e-09
-4.46032e-09
-4.47695e-09
-4.49206e-09
-4.50575e-09
-4.51807e-09
-4.52911e-09
-4.53893e-09
-4.54761e-09
-4.55522e-09
-4.56182e-09
-4.56748e-09
-4.57228e-09
-4.57626e-09
-4.5795e-09
-4.58205e-09
-4.58396e-09
-4.5853e-09
-4.58612e-09
-4.58646e-09
-4.58638e-09
-4.58592e-09
-4.58512e-09
-4.58404e-09
-4.5827e-09
-4.58114e-09
-4.5794e-09
-4.57751e-09
-4.5755e-09
-4.5734e-09
-4.57123e-09
-4.56902e-09
-4.56678e-09
-4.56455e-09
-4.56232e-09
-4.56013e-09
-4.55797e-09
-4.55587e-09
-4.55383e-09
-4.55187e-09
-4.54997e-09
-4.54816e-09
-4.54643e-09
-4.54478e-09
-4.54321e-09
-4.54173e-09
-4.54033e-09
-4.53901e-09
-4.53775e-09
-4.53657e-09
-4.53544e-09
-4.53437e-09
-4.53334e-09
-4.53234e-09
-4.53138e-09
-4.53043e-09
-4.52948e-09
-4.52854e-09
-4.52758e-09
-4.5266e-09
-4.52557e-09
-4.52451e-09
-4.52338e-09
-4.52219e-09
-4.52091e-09
-4.51955e-09
-4.51808e-09
-4.5165e-09
-4.51479e-09
-4.51296e-09
-4.51098e-09
-4.50885e-09
-4.50655e-09
-4.50409e-09
-4.50145e-09
-4.49863e-09
-4.49561e-09
-4.49239e-09
-4.48897e-09
-4.48533e-09
-4.48148e-09
-4.4774e-09
-4.4731e-09
-4.46857e-09
-4.4638e-09
-4.45879e-09
-4.45355e-09
-4.44807e-09
-4.44234e-09
-4.43637e-09
-4.43016e-09
-4.4237e-09
-4.417e-09
-4.41005e-09
-4.40286e-09
-4.39544e-09
-4.38777e-09
-4.37987e-09
-4.37173e-09
-4.36337e-09
-4.35477e-09
-4.34596e-09
-4.33692e-09
-4.32767e-09
-4.3182e-09
-4.30853e-09
-4.29865e-09
-4.28858e-09
-4.27831e-09
-4.26786e-09
-4.25722e-09
-4.2464e-09
-4.23541e-09
-4.22425e-09
-4.21293e-09
-4.20145e-09
-4.18982e-09
-4.17803e-09
-4.16611e-09
-4.15404e-09
-4.14184e-09
-4.12951e-09
-4.11704e-09
-4.10445e-09
-4.09174e-09
-4.0789e-09
-4.06594e-09
-4.05286e-09
-4.03965e-09
-4.02632e-09
-4.01287e-09
-3.99928e-09
-3.98556e-09
-3.9717e-09
-3.95768e-09
-3.94351e-09
-3.92916e-09
-3.91462e-09
-3.89989e-09
-3.88492e-09
-3.86972e-09
-3.85424e-09
-3.83846e-09
-3.82234e-09
-3.80586e-09
-3.78896e-09
-3.7716e-09
-3.75373e-09
-3.73528e-09
-3.71619e-09
-3.69639e-09
-3.67579e-09
-3.65431e-09
-3.63183e-09
-3.60827e-09
-3.58348e-09
-3.55734e-09
-3.5297e-09
-3.5004e-09
-3.46928e-09
-3.43613e-09
-3.40075e-09
-3.36292e-09
-3.32241e-09
-3.27895e-09
-3.23228e-09
-3.18209e-09
-3.12807e-09
-3.06991e-09
-3.00725e-09
-2.93973e-09
-2.86699e-09
-2.78864e-09
-2.7043e-09
-2.61356e-09
-2.51603e-09
-2.41135e-09
-2.29912e-09
-2.17902e-09
-2.05071e-09
-1.91393e-09
-1.76844e-09
-1.61409e-09
-1.45079e-09
-1.27855e-09
-1.09749e-09
-9.07865e-10
-7.10075e-10
-5.04717e-10
-2.92606e-10
-7.48203e-11
1.47245e-10
3.71816e-10
5.96673e-10
8.19076e-10
1.0357e-09
1.24258e-09
1.43512e-09
1.60811e-09
1.75591e-09
1.87272e-09
1.95291e-09
1.99158e-09
1.985e-09
1.93121e-09
1.83017e-09
1.68358e-09
1.4953e-09
1.27337e-09
1.03147e-09
7.74606e-10
4.88819e-10
2.01311e-10
4.26203e-11
1.2843e-10
2.32288e-10
3.21598e-10
4.09466e-10
5.56005e-10
7.11805e-10
8.21481e-10
8.89249e-10
9.32731e-10
9.63804e-10
9.93197e-10
1.03011e-09
1.0807e-09
1.14768e-09
1.23078e-09
1.32767e-09
1.43483e-09
1.54837e-09
1.66448e-09
1.77973e-09
1.89125e-09
1.99667e-09
2.09414e-09
2.1822e-09
2.25975e-09
2.326e-09
2.38035e-09
2.42245e-09
2.45208e-09
2.46919e-09
2.47384e-09
2.46621e-09
2.44656e-09
2.41525e-09
2.37271e-09
2.31941e-09
2.25589e-09
2.18273e-09
2.10051e-09
2.00987e-09
1.91143e-09
1.80582e-09
1.69368e-09
1.57564e-09
1.4523e-09
1.32426e-09
1.19211e-09
1.05639e-09
9.1764e-10
7.76364e-10
6.33046e-10
4.88139e-10
3.42076e-10
1.9526e-10
4.8068e-11
-9.91444e-11
-2.46049e-10
-3.92341e-10
-5.37733e-10
-6.81966e-10
-8.24797e-10
-9.66003e-10
-1.10538e-09
-1.24275e-09
-1.37793e-09
-1.51078e-09
-1.64115e-09
-1.76892e-09
-1.89398e-09
-2.01624e-09
-2.1356e-09
-2.25199e-09
-2.36536e-09
-2.47563e-09
-2.58278e-09
-2.68676e-09
-2.78755e-09
-2.88513e-09
-2.9795e-09
-3.07063e-09
-3.15855e-09
-3.24326e-09
-3.32477e-09
-3.40311e-09
-3.4783e-09
-3.55038e-09
-3.61938e-09
-3.68535e-09
-3.74832e-09
-3.80835e-09
-3.8655e-09
-3.91981e-09
-3.97135e-09
-4.02018e-09
-4.06636e-09
-4.10996e-09
-4.15106e-09
-4.18971e-09
-4.22599e-09
-4.25999e-09
-4.29176e-09
-4.32139e-09
-4.34896e-09
-4.37453e-09
-4.3982e-09
-4.42003e-09
-4.44011e-09
-4.45851e-09
-4.47531e-09
-4.49058e-09
-4.50441e-09
-4.51686e-09
-4.52802e-09
-4.53795e-09
-4.54672e-09
-4.55441e-09
-4.56109e-09
-4.56682e-09
-4.57166e-09
-4.57569e-09
-4.57896e-09
-4.58154e-09
-4.58347e-09
-4.58482e-09
-4.58564e-09
-4.58598e-09
-4.58589e-09
-4.58542e-09
-4.58461e-09
-4.5835e-09
-4.58213e-09
-4.58055e-09
-4.57877e-09
-4.57685e-09
-4.5748e-09
-4.57266e-09
-4.57045e-09
-4.5682e-09
-4.56592e-09
-4.56364e-09
-4.56137e-09
-4.55913e-09
-4.55694e-09
-4.55479e-09
-4.55271e-09
-4.5507e-09
-4.54877e-09
-4.54692e-09
-4.54515e-09
-4.54347e-09
-4.54188e-09
-4.54037e-09
-4.53894e-09
-4.53759e-09
-4.53631e-09
-4.53511e-09
-4.53397e-09
-4.53288e-09
-4.53184e-09
-4.53083e-09
-4.52986e-09
-4.52891e-09
-4.52797e-09
-4.52702e-09
-4.52607e-09
-4.52509e-09
-4.52408e-09
-4.52302e-09
-4.52191e-09
-4.52074e-09
-4.51948e-09
-4.51813e-09
-4.51669e-09
-4.51513e-09
-4.51346e-09
-4.51165e-09
-4.5097e-09
-4.5076e-09
-4.50534e-09
-4.50291e-09
-4.50031e-09
-4.49752e-09
-4.49454e-09
-4.49136e-09
-4.48798e-09
-4.48438e-09
-4.48057e-09
-4.47653e-09
-4.47227e-09
-4.46778e-09
-4.46306e-09
-4.4581e-09
-4.4529e-09
-4.44746e-09
-4.44178e-09
-4.43585e-09
-4.42968e-09
-4.42327e-09
-4.41661e-09
-4.40971e-09
-4.40257e-09
-4.39518e-09
-4.38756e-09
-4.3797e-09
-4.37161e-09
-4.36328e-09
-4.35473e-09
-4.34596e-09
-4.33696e-09
-4.32775e-09
-4.31832e-09
-4.30869e-09
-4.29886e-09
-4.28882e-09
-4.27859e-09
-4.26818e-09
-4.25758e-09
-4.2468e-09
-4.23585e-09
-4.22473e-09
-4.21345e-09
-4.20201e-09
-4.19041e-09
-4.17867e-09
-4.16678e-09
-4.15476e-09
-4.1426e-09
-4.13031e-09
-4.11789e-09
-4.10534e-09
-4.09267e-09
-4.07988e-09
-4.06697e-09
-4.05394e-09
-4.04079e-09
-4.02752e-09
-4.01412e-09
-4.0006e-09
-3.98695e-09
-3.97316e-09
-3.95922e-09
-3.94513e-09
-3.93087e-09
-3.91644e-09
-3.9018e-09
-3.88695e-09
-3.87187e-09
-3.85653e-09
-3.84089e-09
-3.82494e-09
-3.80863e-09
-3.79193e-09
-3.77477e-09
-3.75713e-09
-3.73893e-09
-3.72012e-09
-3.70062e-09
-3.68035e-09
-3.65922e-09
-3.63714e-09
-3.614e-09
-3.58969e-09
-3.56406e-09
-3.53698e-09
-3.5083e-09
-3.47784e-09
-3.44542e-09
-3.41084e-09
-3.37387e-09
-3.33429e-09
-3.29185e-09
-3.24627e-09
-3.19727e-09
-3.14454e-09
-3.08775e-09
-3.02658e-09
-2.96066e-09
-2.88962e-09
-2.81308e-09
-2.73067e-09
-2.64198e-09
-2.54662e-09
-2.44421e-09
-2.33438e-09
-2.21677e-09
-2.09106e-09
-1.95695e-09
-1.81421e-09
-1.66265e-09
-1.50216e-09
-1.33272e-09
-1.15441e-09
-9.67424e-10
-7.7211e-10
-5.68984e-10
-3.58765e-10
-1.42418e-10
7.87995e-11
3.03275e-10
5.28974e-10
7.53367e-10
9.73359e-10
1.18523e-09
1.38462e-09
1.56657e-09
1.72568e-09
1.85634e-09
1.95315e-09
2.0114e-09
2.02765e-09
2.00011e-09
1.9288e-09
1.81623e-09
1.66496e-09
1.48124e-09
1.27643e-09
1.04953e-09
7.6637e-10
4.27405e-10
1.67606e-10
1.57974e-10
2.01714e-10
2.22685e-10
2.42673e-10
3.57055e-10
5.12362e-10
6.30027e-10
7.08966e-10
7.68339e-10
8.18878e-10
8.69798e-10
9.29188e-10
1.00237e-09
1.09134e-09
1.19527e-09
1.31139e-09
1.43594e-09
1.56484e-09
1.69428e-09
1.82088e-09
1.94188e-09
2.05507e-09
2.15875e-09
2.25163e-09
2.33279e-09
2.40159e-09
2.4576e-09
2.50057e-09
2.53042e-09
2.5472e-09
2.55108e-09
2.5423e-09
2.52122e-09
2.48825e-09
2.44386e-09
2.38859e-09
2.32302e-09
2.24773e-09
2.16337e-09
2.07058e-09
1.96999e-09
1.86227e-09
1.74806e-09
1.62798e-09
1.50266e-09
1.37271e-09
1.23869e-09
1.10117e-09
9.60675e-10
8.1772e-10
6.72781e-10
5.26314e-10
3.78745e-10
2.30478e-10
8.18885e-11
-6.66732e-11
-2.14879e-10
-3.62427e-10
-5.09033e-10
-6.54437e-10
-7.98402e-10
-9.40706e-10
-1.08115e-09
-1.21954e-09
-1.35572e-09
-1.48953e-09
-1.62084e-09
-1.74952e-09
-1.87547e-09
-1.99858e-09
-2.11877e-09
-2.23597e-09
-2.35012e-09
-2.46116e-09
-2.56904e-09
-2.67374e-09
-2.77523e-09
-2.87348e-09
-2.96849e-09
-3.06026e-09
-3.14878e-09
-3.23408e-09
-3.31616e-09
-3.39504e-09
-3.47076e-09
-3.54335e-09
-3.61284e-09
-3.67927e-09
-3.74269e-09
-3.80315e-09
-3.86071e-09
-3.91541e-09
-3.96732e-09
-4.0165e-09
-4.06301e-09
-4.10693e-09
-4.14832e-09
-4.18725e-09
-4.2238e-09
-4.25804e-09
-4.29004e-09
-4.31988e-09
-4.34764e-09
-4.37339e-09
-4.39722e-09
-4.41921e-09
-4.43942e-09
-4.45794e-09
-4.47485e-09
-4.49022e-09
-4.50413e-09
-4.51665e-09
-4.52786e-09
-4.53784e-09
-4.54665e-09
-4.55437e-09
-4.56107e-09
-4.56681e-09
-4.57165e-09
-4.57568e-09
-4.57893e-09
-4.58149e-09
-4.5834e-09
-4.58472e-09
-4.5855e-09
-4.5858e-09
-4.58567e-09
-4.58515e-09
-4.58429e-09
-4.58312e-09
-4.5817e-09
-4.58006e-09
-4.57823e-09
-4.57625e-09
-4.57414e-09
-4.57194e-09
-4.56967e-09
-4.56736e-09
-4.56503e-09
-4.56269e-09
-4.56037e-09
-4.55808e-09
-4.55583e-09
-4.55364e-09
-4.55152e-09
-4.54946e-09
-4.54749e-09
-4.5456e-09
-4.5438e-09
-4.54209e-09
-4.54046e-09
-4.53893e-09
-4.53748e-09
-4.53611e-09
-4.53482e-09
-4.5336e-09
-4.53245e-09
-4.53135e-09
-4.53031e-09
-4.5293e-09
-4.52834e-09
-4.52739e-09
-4.52645e-09
-4.52552e-09
-4.52458e-09
-4.52362e-09
-4.52263e-09
-4.52159e-09
-4.52051e-09
-4.51936e-09
-4.51813e-09
-4.51681e-09
-4.5154e-09
-4.51387e-09
-4.51223e-09
-4.51046e-09
-4.50855e-09
-4.50649e-09
-4.50427e-09
-4.50188e-09
-4.49932e-09
-4.49658e-09
-4.49364e-09
-4.4905e-09
-4.48716e-09
-4.48361e-09
-4.47984e-09
-4.47586e-09
-4.47164e-09
-4.4672e-09
-4.46252e-09
-4.4576e-09
-4.45245e-09
-4.44705e-09
-4.44142e-09
-4.43554e-09
-4.42941e-09
-4.42304e-09
-4.41642e-09
-4.40957e-09
-4.40246e-09
-4.39512e-09
-4.38754e-09
-4.37972e-09
-4.37167e-09
-4.36338e-09
-4.35487e-09
-4.34613e-09
-4.33718e-09
-4.328e-09
-4.31861e-09
-4.30902e-09
-4.29922e-09
-4.28922e-09
-4.27902e-09
-4.26864e-09
-4.25808e-09
-4.24733e-09
-4.23642e-09
-4.22533e-09
-4.21408e-09
-4.20268e-09
-4.19112e-09
-4.17941e-09
-4.16756e-09
-4.15557e-09
-4.14345e-09
-4.1312e-09
-4.11882e-09
-4.10631e-09
-4.09369e-09
-4.08094e-09
-4.06808e-09
-4.0551e-09
-4.04201e-09
-4.0288e-09
-4.01546e-09
-4.00201e-09
-3.98843e-09
-3.97472e-09
-3.96086e-09
-3.94687e-09
-3.93271e-09
-3.91838e-09
-3.90387e-09
-3.88915e-09
-3.87421e-09
-3.85902e-09
-3.84356e-09
-3.8278e-09
-3.8117e-09
-3.79522e-09
-3.77832e-09
-3.76095e-09
-3.74306e-09
-3.72458e-09
-3.70544e-09
-3.68557e-09
-3.66489e-09
-3.6433e-09
-3.62069e-09
-3.59695e-09
-3.57196e-09
-3.54558e-09
-3.51766e-09
-3.48803e-09
-3.45652e-09
-3.42292e-09
-3.38703e-09
-3.34862e-09
-3.30745e-09
-3.26324e-09
-3.21573e-09
-3.1646e-09
-3.10955e-09
-3.05024e-09
-2.98631e-09
-2.91741e-09
-2.84316e-09
-2.76318e-09
-2.67707e-09
-2.58444e-09
-2.48491e-09
-2.3781e-09
-2.26365e-09
-2.14121e-09
-2.0105e-09
-1.87123e-09
-1.72322e-09
-1.56631e-09
-1.40043e-09
-1.22563e-09
-1.04204e-09
-8.4992e-10
-6.497e-10
-4.41987e-10
-2.2761e-10
-7.66668e-12
2.1642e-10
4.42831e-10
6.69282e-10
8.92941e-10
1.11037e-09
1.31747e-09
1.50955e-09
1.6814e-09
1.82757e-09
1.94272e-09
2.02213e-09
2.06224e-09
2.06114e-09
2.01879e-09
1.93569e-09
1.81456e-09
1.65935e-09
1.47952e-09
1.2721e-09
9.909e-10
6.12955e-10
2.74702e-10
2.12997e-10
2.19788e-10
1.8773e-10
1.39425e-10
2.13897e-10
3.62633e-10
4.83283e-10
5.68293e-10
6.39083e-10
7.05534e-10
7.75266e-10
8.55128e-10
9.49463e-10
1.05943e-09
1.18352e-09
1.31843e-09
1.46001e-09
1.60401e-09
1.74649e-09
1.88412e-09
2.0142e-09
2.13467e-09
2.24399e-09
2.34106e-09
2.42512e-09
2.49569e-09
2.55251e-09
2.59549e-09
2.62467e-09
2.64022e-09
2.64241e-09
2.63158e-09
2.60816e-09
2.57264e-09
2.52555e-09
2.46748e-09
2.39904e-09
2.32087e-09
2.23363e-09
2.13798e-09
2.03459e-09
1.92413e-09
1.80724e-09
1.68458e-09
1.55676e-09
1.42439e-09
1.28805e-09
1.1483e-09
1.00567e-09
8.60659e-10
7.13755e-10
5.65405e-10
4.16035e-10
2.66043e-10
1.15801e-10
-3.43437e-11
-1.84067e-10
-3.33068e-10
-4.8107e-10
-6.27814e-10
-7.73064e-10
-9.16603e-10
-1.05823e-09
-1.19777e-09
-1.33505e-09
-1.46992e-09
-1.60225e-09
-1.73191e-09
-1.85881e-09
-1.98283e-09
-2.10391e-09
-2.22196e-09
-2.33692e-09
-2.44875e-09
-2.55739e-09
-2.66282e-09
-2.76501e-09
-2.86394e-09
-2.9596e-09
-3.05199e-09
-3.14112e-09
-3.22699e-09
-3.30962e-09
-3.38904e-09
-3.46526e-09
-3.53833e-09
-3.60827e-09
-3.67514e-09
-3.73898e-09
-3.79983e-09
-3.85775e-09
-3.9128e-09
-3.96504e-09
-4.01453e-09
-4.06133e-09
-4.10552e-09
-4.14716e-09
-4.18632e-09
-4.22308e-09
-4.25751e-09
-4.28969e-09
-4.31969e-09
-4.34759e-09
-4.37347e-09
-4.39742e-09
-4.4195e-09
-4.43979e-09
-4.45838e-09
-4.47535e-09
-4.49076e-09
-4.5047e-09
-4.51725e-09
-4.52847e-09
-4.53845e-09
-4.54725e-09
-4.55495e-09
-4.56162e-09
-4.56733e-09
-4.57214e-09
-4.57611e-09
-4.57932e-09
-4.58182e-09
-4.58366e-09
-4.58492e-09
-4.58563e-09
-4.58586e-09
-4.58566e-09
-4.58506e-09
-4.58412e-09
-4.58288e-09
-4.58138e-09
-4.57966e-09
-4.57775e-09
-4.57569e-09
-4.57351e-09
-4.57123e-09
-4.56889e-09
-4.56651e-09
-4.56411e-09
-4.56171e-09
-4.55932e-09
-4.55697e-09
-4.55467e-09
-4.55242e-09
-4.55025e-09
-4.54815e-09
-4.54614e-09
-4.54421e-09
-4.54237e-09
-4.54063e-09
-4.53898e-09
-4.53742e-09
-4.53595e-09
-4.53456e-09
-4.53326e-09
-4.53204e-09
-4.53088e-09
-4.52978e-09
-4.52874e-09
-4.52775e-09
-4.52679e-09
-4.52586e-09
-4.52494e-09
-4.52402e-09
-4.52311e-09
-4.52217e-09
-4.5212e-09
-4.5202e-09
-4.51914e-09
-4.51803e-09
-4.51683e-09
-4.51556e-09
-4.51418e-09
-4.5127e-09
-4.5111e-09
-4.50937e-09
-4.5075e-09
-4.50549e-09
-4.50332e-09
-4.50097e-09
-4.49846e-09
-4.49576e-09
-4.49287e-09
-4.48979e-09
-4.48649e-09
-4.48299e-09
-4.47927e-09
-4.47533e-09
-4.47117e-09
-4.46677e-09
-4.46214e-09
-4.45727e-09
-4.45216e-09
-4.44681e-09
-4.44122e-09
-4.43538e-09
-4.4293e-09
-4.42297e-09
-4.4164e-09
-4.40958e-09
-4.40252e-09
-4.39522e-09
-4.38768e-09
-4.37989e-09
-4.37188e-09
-4.36363e-09
-4.35516e-09
-4.34646e-09
-4.33753e-09
-4.32839e-09
-4.31904e-09
-4.30947e-09
-4.2997e-09
-4.28974e-09
-4.27957e-09
-4.26922e-09
-4.25869e-09
-4.24798e-09
-4.23709e-09
-4.22604e-09
-4.21482e-09
-4.20344e-09
-4.19192e-09
-4.18024e-09
-4.16842e-09
-4.15647e-09
-4.14438e-09
-4.13216e-09
-4.11982e-09
-4.10736e-09
-4.09478e-09
-4.08208e-09
-4.06926e-09
-4.05634e-09
-4.0433e-09
-4.03014e-09
-4.01688e-09
-4.00349e-09
-3.98999e-09
-3.97636e-09
-3.9626e-09
-3.9487e-09
-3.93466e-09
-3.92045e-09
-3.90607e-09
-3.8915e-09
-3.87673e-09
-3.86172e-09
-3.84646e-09
-3.83091e-09
-3.81505e-09
-3.79884e-09
-3.78223e-09
-3.76518e-09
-3.74764e-09
-3.72955e-09
-3.71084e-09
-3.69145e-09
-3.67128e-09
-3.65025e-09
-3.62827e-09
-3.60522e-09
-3.58098e-09
-3.55542e-09
-3.5284e-09
-3.49975e-09
-3.46931e-09
-3.43689e-09
-3.40227e-09
-3.36525e-09
-3.32558e-09
-3.283e-09
-3.23725e-09
-3.18804e-09
-3.13504e-09
-3.07794e-09
-3.0164e-09
-2.95004e-09
-2.87852e-09
-2.80144e-09
-2.71841e-09
-2.62905e-09
-2.53296e-09
-2.42977e-09
-2.31909e-09
-2.2006e-09
-2.07395e-09
-1.93888e-09
-1.79514e-09
-1.64256e-09
-1.48102e-09
-1.3105e-09
-1.13106e-09
-9.42897e-10
-7.46323e-10
-5.41827e-10
-3.30088e-10
-1.12032e-10
1.11122e-10
3.37786e-10
5.65931e-10
7.93004e-10
1.01585e-09
1.23065e-09
1.43294e-09
1.61768e-09
1.7795e-09
1.913e-09
2.01326e-09
2.07636e-09
2.09985e-09
2.08295e-09
2.02593e-09
1.92979e-09
1.79709e-09
1.63643e-09
1.44601e-09
1.17414e-09
7.76649e-10
3.838e-10
2.94045e-10
2.85559e-10
2.18005e-10
1.04501e-10
1.3289e-10
2.69089e-10
3.87532e-10
4.73089e-10
5.50169e-10
6.28211e-10
7.13251e-10
8.10795e-10
9.241e-10
1.05339e-09
1.19634e-09
1.34902e-09
1.50684e-09
1.66525e-09
1.82017e-09
1.96823e-09
2.10681e-09
2.23394e-09
2.34825e-09
2.4488e-09
2.53501e-09
2.60659e-09
2.66342e-09
2.70558e-09
2.73325e-09
2.74672e-09
2.74638e-09
2.73266e-09
2.70609e-09
2.66722e-09
2.61665e-09
2.55503e-09
2.483e-09
2.40125e-09
2.31047e-09
2.21135e-09
2.10456e-09
1.99079e-09
1.87071e-09
1.74496e-09
1.61418e-09
1.47896e-09
1.33989e-09
1.19753e-09
1.05241e-09
9.05027e-10
7.55857e-10
6.05345e-10
4.53912e-10
3.01956e-10
1.49841e-10
-2.09017e-12
-1.53517e-10
-3.04144e-10
-4.53698e-10
-6.01924e-10
-7.4859e-10
-8.93485e-10
-1.03641e-09
-1.17719e-09
-1.31565e-09
-1.45166e-09
-1.58508e-09
-1.71579e-09
-1.84369e-09
-1.96868e-09
-2.09067e-09
-2.2096e-09
-2.32541e-09
-2.43805e-09
-2.54748e-09
-2.65365e-09
-2.75655e-09
-2.85616e-09
-2.95248e-09
-3.04549e-09
-3.13521e-09
-3.22165e-09
-3.30482e-09
-3.38474e-09
-3.46145e-09
-3.53498e-09
-3.60536e-09
-3.67263e-09
-3.73685e-09
-3.79807e-09
-3.85633e-09
-3.9117e-09
-3.96423e-09
-4.01399e-09
-4.06104e-09
-4.10545e-09
-4.1473e-09
-4.18665e-09
-4.22358e-09
-4.25816e-09
-4.29047e-09
-4.32059e-09
-4.3486e-09
-4.37456e-09
-4.39857e-09
-4.42071e-09
-4.44104e-09
-4.45966e-09
-4.47664e-09
-4.49206e-09
-4.50599e-09
-4.51851e-09
-4.52971e-09
-4.53965e-09
-4.5484e-09
-4.55605e-09
-4.56266e-09
-4.5683e-09
-4.57303e-09
-4.57693e-09
-4.58005e-09
-4.58246e-09
-4.58421e-09
-4.58537e-09
-4.58599e-09
-4.58613e-09
-4.58582e-09
-4.58513e-09
-4.58409e-09
-4.58275e-09
-4.58115e-09
-4.57933e-09
-4.57733e-09
-4.57517e-09
-4.5729e-09
-4.57054e-09
-4.56811e-09
-4.56565e-09
-4.56317e-09
-4.56069e-09
-4.55824e-09
-4.55582e-09
-4.55346e-09
-4.55116e-09
-4.54893e-09
-4.54678e-09
-4.54472e-09
-4.54276e-09
-4.54089e-09
-4.53911e-09
-4.53744e-09
-4.53586e-09
-4.53437e-09
-4.53298e-09
-4.53167e-09
-4.53044e-09
-4.52928e-09
-4.52819e-09
-4.52716e-09
-4.52618e-09
-4.52523e-09
-4.52432e-09
-4.52342e-09
-4.52254e-09
-4.52165e-09
-4.52074e-09
-4.51981e-09
-4.51884e-09
-4.51782e-09
-4.51675e-09
-4.5156e-09
-4.51436e-09
-4.51303e-09
-4.5116e-09
-4.51005e-09
-4.50837e-09
-4.50655e-09
-4.50458e-09
-4.50246e-09
-4.50017e-09
-4.49771e-09
-4.49506e-09
-4.49223e-09
-4.48919e-09
-4.48595e-09
-4.4825e-09
-4.47883e-09
-4.47494e-09
-4.47082e-09
-4.46647e-09
-4.46189e-09
-4.45707e-09
-4.45201e-09
-4.44671e-09
-4.44116e-09
-4.43537e-09
-4.42933e-09
-4.42304e-09
-4.41651e-09
-4.40973e-09
-4.40271e-09
-4.39545e-09
-4.38794e-09
-4.3802e-09
-4.37222e-09
-4.36401e-09
-4.35556e-09
-4.34689e-09
-4.338e-09
-4.32889e-09
-4.31957e-09
-4.31003e-09
-4.30029e-09
-4.29035e-09
-4.28022e-09
-4.2699e-09
-4.25939e-09
-4.2487e-09
-4.23785e-09
-4.22682e-09
-4.21563e-09
-4.20428e-09
-4.19278e-09
-4.18114e-09
-4.16935e-09
-4.15743e-09
-4.14537e-09
-4.13319e-09
-4.12088e-09
-4.10846e-09
-4.09592e-09
-4.08326e-09
-4.0705e-09
-4.05762e-09
-4.04464e-09
-4.03155e-09
-4.01835e-09
-4.00504e-09
-3.99162e-09
-3.97808e-09
-3.96442e-09
-3.95063e-09
-3.9367e-09
-3.92263e-09
-3.9084e-09
-3.89399e-09
-3.8794e-09
-3.86459e-09
-3.84955e-09
-3.83425e-09
-3.81866e-09
-3.80274e-09
-3.78646e-09
-3.76978e-09
-3.75264e-09
-3.73499e-09
-3.71677e-09
-3.69791e-09
-3.67833e-09
-3.65795e-09
-3.63668e-09
-3.61441e-09
-3.59103e-09
-3.56641e-09
-3.54041e-09
-3.51289e-09
-3.48368e-09
-3.45259e-09
-3.41943e-09
-3.38399e-09
-3.34605e-09
-3.30534e-09
-3.26162e-09
-3.21459e-09
-3.16396e-09
-3.1094e-09
-3.05059e-09
-2.98717e-09
-2.91877e-09
-2.84503e-09
-2.76556e-09
-2.67996e-09
-2.58785e-09
-2.48884e-09
-2.38255e-09
-2.26862e-09
-2.14671e-09
-2.01652e-09
-1.87778e-09
-1.73026e-09
-1.57382e-09
-1.40836e-09
-1.23388e-09
-1.05048e-09
-8.58363e-10
-6.57895e-10
-4.49602e-10
-2.34233e-10
-1.27998e-11
2.13341e-10
4.42423e-10
6.72159e-10
8.99673e-10
1.12141e-09
1.33311e-09
1.52987e-09
1.70632e-09
1.85693e-09
1.97646e-09
2.06053e-09
2.10606e-09
2.1115e-09
2.07657e-09
2.00136e-09
1.88758e-09
1.74373e-09
1.57129e-09
1.31836e-09
9.21968e-10
4.98206e-10
3.95746e-10
3.91469e-10
3.07734e-10
1.36556e-10
1.15808e-10
2.3502e-10
3.47015e-10
4.2813e-10
5.06462e-10
5.91539e-10
6.87945e-10
7.9982e-10
9.29291e-10
1.07557e-09
1.23545e-09
1.4043e-09
1.57701e-09
1.74867e-09
1.915e-09
2.07258e-09
2.21879e-09
2.35176e-09
2.47024e-09
2.57347e-09
2.66103e-09
2.73279e-09
2.78881e-09
2.82934e-09
2.85469e-09
2.86528e-09
2.86161e-09
2.84423e-09
2.81375e-09
2.7708e-09
2.71605e-09
2.65019e-09
2.57393e-09
2.48799e-09
2.39308e-09
2.28993e-09
2.17922e-09
2.06166e-09
1.93792e-09
1.80866e-09
1.6745e-09
1.53606e-09
1.39392e-09
1.24863e-09
1.10071e-09
9.50673e-10
7.98977e-10
6.46066e-10
4.92354e-10
3.3823e-10
1.84056e-10
3.01685e-11
-1.23119e-10
-2.75516e-10
-4.2675e-10
-5.76578e-10
-7.24768e-10
-8.71116e-10
-1.01543e-09