/*--------------------------------*- C++ -*----------------------------------*\
| =========                 |                                                 |
| \\      /  F ield         | OpenFOAM: The Open Source CFD Toolbox           |
|  \\    /   O peration     | Version:  2112                                  |
|   \\  /    A nd           | Website:  www.openfoam.com                      |
|    \\/     M anipulation  |                                                 |
\*---------------------------------------------------------------------------*/
FoamFile
{
    version     2.0;
    format      ascii;
    arch        "LSB;label=32;scalar=64";
    class       surfaceScalarField;
    location    "5.96";
    object      phi;
}
// * * * * * * * * * * * * * * * * * * * * * * * * * * * * * * * * * * * * * //

dimensions      [0 3 -1 0 0 0 0];

oriented        oriented;

internalField   nonuniform List<scalar> 
50800
(
0.000471162
1.83587e-12
0.000471162
-9.54261e-13
0.000471162
-2.72383e-12
0.000471162
-3.27304e-12
0.000471162
-3.20625e-12
0.000471162
-2.954e-12
0.000471162
-2.65583e-12
0.000471162
-2.3552e-12
0.000471162
-2.07392e-12
0.000471162
-1.81801e-12
0.000471162
-1.58835e-12
0.000471162
-1.38417e-12
0.000471162
-1.20386e-12
0.000471162
-1.04521e-12
0.000471162
-9.05734e-13
0.000471162
-7.82878e-13
0.000471162
-6.74264e-13
0.000471162
-5.778e-13
0.000471162
-4.91727e-13
0.000471162
-4.14605e-13
0.000471162
-3.45268e-13
0.000471162
-2.82767e-13
0.000471162
-2.26326e-13
0.000471162
-1.75294e-13
0.000471162
-1.29115e-13
0.000471162
-8.73142e-14
0.000471162
-4.96796e-14
0.000471162
-1.53887e-14
0.000471162
1.62596e-14
0.000471162
4.40399e-14
0.000471162
6.94824e-14
0.000471162
9.2542e-14
0.000471162
1.13407e-13
0.000471162
1.32269e-13
0.000471162
1.49301e-13
0.000471162
1.64656e-13
0.000471162
1.78475e-13
0.000471162
1.90881e-13
0.000471162
2.01985e-13
0.000471162
2.11891e-13
0.000471162
2.20686e-13
0.000471162
2.28455e-13
0.000471162
2.3527e-13
0.000471162
2.41199e-13
0.000471162
2.46306e-13
0.000471162
2.50646e-13
0.000471162
2.54271e-13
0.000471162
2.57229e-13
0.000471162
2.59564e-13
0.000471162
2.61318e-13
0.000471162
2.62528e-13
0.000471162
2.6323e-13
0.000471162
2.63456e-13
0.000471162
2.63237e-13
0.000471162
2.62603e-13
0.000471162
2.61578e-13
0.000471162
2.6019e-13
0.000471162
2.58461e-13
0.000471162
2.56415e-13
0.000471162
2.54071e-13
0.000471162
2.5145e-13
0.000471162
2.48572e-13
0.000471162
2.45453e-13
0.000471162
2.42112e-13
0.000471162
2.38564e-13
0.000471162
2.34824e-13
0.000471162
2.30909e-13
0.000471162
2.26832e-13
0.000471162
2.22606e-13
0.000471162
2.18245e-13
0.000471162
2.13762e-13
0.000471162
2.0917e-13
0.000471162
2.04478e-13
0.000471162
1.99702e-13
0.000471162
1.94849e-13
0.000471162
1.8993e-13
0.000471162
1.84958e-13
0.000471162
1.79942e-13
0.000471162
1.7489e-13
0.000471162
1.69815e-13
0.000471162
1.64721e-13
0.000471162
1.59621e-13
0.000471162
1.54523e-13
0.000471162
1.49435e-13
0.000471162
1.44365e-13
0.000471162
1.39321e-13
0.000471162
1.34308e-13
0.000471162
1.29338e-13
0.000471162
1.24416e-13
0.000471162
1.19546e-13
0.000471162
1.14736e-13
0.000471162
1.09993e-13
0.000471162
1.05324e-13
0.000471162
1.00731e-13
0.000471162
9.62203e-14
0.000471162
9.17973e-14
0.000471162
8.74684e-14
0.000471162
8.32344e-14
0.000471162
7.91025e-14
0.000471162
7.5074e-14
0.000471162
7.11504e-14
0.000471162
6.73406e-14
0.000471162
6.36436e-14
0.000471162
6.00621e-14
0.000471162
5.65997e-14
0.000471162
5.32538e-14
0.000471162
5.00288e-14
0.000471162
4.69287e-14
0.000471162
4.39514e-14
0.000471162
4.1096e-14
0.000471162
3.83649e-14
0.000471162
3.57556e-14
0.000471162
3.32727e-14
0.000471162
3.09138e-14
0.000471162
2.86739e-14
0.000471162
2.65558e-14
0.000471162
2.45588e-14
0.000471162
2.26804e-14
0.000471162
2.09171e-14
0.000471162
1.92682e-14
0.000471162
1.77331e-14
0.000471162
1.63064e-14
0.000471162
1.49879e-14
0.000471162
1.37765e-14
0.000471162
1.26645e-14
0.000471162
1.16496e-14
0.000471162
1.07311e-14
0.000471162
9.9072e-15
0.000471162
9.17044e-15
0.000471162
8.51798e-15
0.000471162
7.94856e-15
0.000471162
7.45644e-15
0.000471162
7.03947e-15
0.000471162
6.69339e-15
0.000471162
6.41334e-15
0.000471162
6.19642e-15
0.000471162
6.03696e-15
0.000471162
5.93571e-15
0.000471162
5.88734e-15
0.000471162
5.88282e-15
0.000471162
5.92387e-15
0.000471162
6.00671e-15
0.000471162
6.12706e-15
0.000471162
6.27934e-15
0.000471162
6.46212e-15
0.000471162
6.67124e-15
0.000471162
6.90088e-15
0.000471162
7.15426e-15
0.000471162
7.4252e-15
0.000471162
7.70711e-15
0.000471162
8.00045e-15
0.000471162
8.30182e-15
0.000471162
8.61058e-15
0.000471162
8.92247e-15
0.000471162
9.23246e-15
0.000471162
9.54196e-15
0.000471162
9.847e-15
0.000471162
1.01489e-14
0.000471162
1.04431e-14
0.000471162
1.07258e-14
0.000471162
1.09992e-14
0.000471162
1.1258e-14
0.000471162
1.15054e-14
0.000471162
1.17386e-14
0.000471162
1.1951e-14
0.000471162
1.215e-14
0.000471162
1.23318e-14
0.000471162
1.24933e-14
0.000471162
1.26369e-14
0.000471162
1.27603e-14
0.000471162
1.28628e-14
0.000471162
1.29438e-14
0.000471162
1.30082e-14
0.000471162
1.30482e-14
0.000471162
1.30664e-14
0.000471162
1.30689e-14
0.000471162
1.30445e-14
0.000471162
1.30028e-14
0.000471162
1.29429e-14
0.000471162
1.28605e-14
0.000471162
1.27578e-14
0.000471162
1.26353e-14
0.000471162
1.24971e-14
0.000471162
1.23409e-14
0.000471162
1.21653e-14
0.000471162
1.19735e-14
0.000471162
1.17629e-14
0.000471162
1.15394e-14
0.000471162
1.13023e-14
0.000471162
1.10459e-14
0.000471162
1.0779e-14
0.000471162
1.05001e-14
0.000471162
1.0207e-14
0.000471162
9.90381e-15
0.000471162
9.58913e-15
0.000471162
9.26338e-15
0.000471162
8.92737e-15
0.000471162
8.58699e-15
0.000471162
8.23435e-15
0.000471162
7.87302e-15
0.000471162
7.5109e-15
0.000471162
7.13704e-15
0.000471162
6.75905e-15
0.000471162
6.37885e-15
0.000471162
5.9911e-15
0.000471162
5.60026e-15
0.000471162
5.20618e-15
0.000471162
4.81075e-15
0.000471162
4.412e-15
0.000471162
4.01022e-15
0.000471162
3.60864e-15
0.000471162
3.20386e-15
0.000471162
2.79963e-15
0.000471162
2.39503e-15
0.000471162
1.9889e-15
0.000471162
1.58652e-15
0.000471162
1.18294e-15
0.000471162
7.79675e-16
0.000471162
3.77502e-16
0.000471162
-2.39754e-17
0.000471162
-4.20467e-16
0.000471162
-8.21182e-16
0.000471162
-1.21468e-15
0.000471162
-1.61147e-15
0.000471162
-2.00659e-15
0.000471162
-2.39107e-15
0.000471162
-2.78222e-15
0.000471162
-3.16817e-15
0.000471162
-3.55193e-15
0.000471162
-3.9368e-15
0.000471162
-4.31143e-15
0.000471162
-4.68955e-15
0.000471162
-5.067e-15
0.000471162
-5.43745e-15
0.000471162
-5.80866e-15
0.000471162
-6.17594e-15
0.000471162
-6.54298e-15
0.000471162
-6.90787e-15
0.000471162
-7.27029e-15
0.000471162
-7.63174e-15
0.000471162
-7.98821e-15
0.000471162
-8.34536e-15
0.000471162
-8.70147e-15
0.000471162
-9.0589e-15
0.000471162
-9.41387e-15
0.000471162
-9.76425e-15
0.000471162
-1.01212e-14
0.000471162
-1.0472e-14
0.000471162
-1.08285e-14
0.000471162
-1.11878e-14
0.000471162
-1.15398e-14
0.000471162
-1.19037e-14
0.000471162
-1.22676e-14
0.000471162
-1.26357e-14
0.000471162
-1.30135e-14
0.000471162
-1.33902e-14
0.000471162
-1.37808e-14
0.000471162
-1.4183e-14
0.000471162
-1.45918e-14
0.000471162
-1.50177e-14
0.000471162
-1.54572e-14
0.000471162
-1.59175e-14
0.000471162
-1.64008e-14
0.000471162
-1.69081e-14
0.000471162
-1.74462e-14
0.000471162
-1.80161e-14
0.000471162
-1.86263e-14
0.000471162
-1.92818e-14
0.000471162
-1.99898e-14
0.000471162
-2.07574e-14
0.000471162
-2.15869e-14
0.000471162
-2.24985e-14
0.000471162
-2.34945e-14
0.000471162
-2.45928e-14
0.000471162
-2.58044e-14
0.000471162
-2.71353e-14
0.000471162
-2.86179e-14
0.000471162
-3.02611e-14
0.000471162
-3.20878e-14
0.000471162
-3.4123e-14
0.000471162
-3.63823e-14
0.000471162
-3.89033e-14
0.000471162
-4.17145e-14
0.000471162
-4.48437e-14
0.000471162
-4.83292e-14
0.000471162
-5.22048e-14
0.000471162
-5.65173e-14
0.000471162
-6.13054e-14
0.000471162
-6.66146e-14
0.000471162
-7.24891e-14
0.000471162
-7.89795e-14
0.000471162
-8.61436e-14
0.000471162
-9.40264e-14
0.000471162
-1.02685e-13
0.000471162
-1.12177e-13
0.000471162
-1.22545e-13
0.000471162
-1.3385e-13
0.000471162
-1.46117e-13
0.000471162
-1.59362e-13
0.000471162
-1.73556e-13
0.000471162
-1.88591e-13
0.000471162
-2.0428e-13
0.000471162
-2.20237e-13
0.000471162
-2.35834e-13
0.000471162
-2.50063e-13
0.000471162
-2.61342e-13
0.000471162
-2.67291e-13
0.000471162
-2.6439e-13
0.000471162
-2.47063e-13
0.000471162
-2.06845e-13
0.000471162
-1.29887e-13
0.000471162
1.92083e-14
0.000471162
2.3584e-13
0.000471162
5.98033e-13
0.000471162
1.15689e-12
0.000471162
1.97523e-12
0.000471162
3.07347e-12
0.000471162
4.28809e-12
0.000471162
4.97355e-12
4.20563e-12
0.00138989
5.94663e-12
0.00138989
-1.46713e-12
0.00138989
-6.8967e-12
0.00138989
-9.30279e-12
0.00138989
-9.77532e-12
0.00138989
-9.44963e-12
0.00138989
-8.79949e-12
0.00138989
-8.02005e-12
0.00138989
-7.2187e-12
0.00138989
-6.44452e-12
0.00138989
-5.71875e-12
0.00138989
-5.0499e-12
0.00138989
-4.44003e-12
0.00138989
-3.88766e-12
0.00138989
-3.38935e-12
0.00138989
-2.9407e-12
0.00138989
-2.53698e-12
0.00138989
-2.17359e-12
0.00138989
-1.84623e-12
0.00138989
-1.55102e-12
0.00138989
-1.28457e-12
0.00138989
-1.04386e-12
0.00138989
-8.26273e-13
0.00138989
-6.29498e-13
0.00138989
-4.51502e-13
0.00138989
-2.90483e-13
0.00138989
-1.44822e-13
0.00138989
-1.34257e-14
0.00138989
1.06164e-13
0.00138989
2.13649e-13
0.00138989
3.10777e-13
0.00138989
3.98443e-13
0.00138989
4.7746e-13
0.00138989
5.48584e-13
0.00138989
6.12495e-13
0.00138989
6.69807e-13
0.00138989
7.21074e-13
0.00138989
7.66798e-13
0.00138989
8.07428e-13
0.00138989
8.43374e-13
0.00138989
8.75003e-13
0.00138989
9.02653e-13
0.00138989
9.26623e-13
0.00138989
9.47192e-13
0.00138989
9.64611e-13
0.00138989
9.7911e-13
0.00138989
9.90899e-13
0.00138989
1.00017e-12
0.00138989
1.0071e-12
0.00138989
1.01185e-12
0.00138989
1.01457e-12
0.00138989
1.0154e-12
0.00138989
1.01448e-12
0.00138989
1.01191e-12
0.00138989
1.00781e-12
0.00138989
1.00228e-12
0.00138989
9.95419e-13
0.00138989
9.87323e-13
0.00138989
9.78071e-13
0.00138989
9.67745e-13
0.00138989
9.5642e-13
0.00138989
9.44171e-13
0.00138989
9.31063e-13
0.00138989
9.17161e-13
0.00138989
9.02527e-13
0.00138989
8.87218e-13
0.00138989
8.71296e-13
0.00138989
8.54809e-13
0.00138989
8.3781e-13
0.00138989
8.20349e-13
0.00138989
8.02475e-13
0.00138989
7.84235e-13
0.00138989
7.65673e-13
0.00138989
7.46833e-13
0.00138989
7.27754e-13
0.00138989
7.08477e-13
0.00138989
6.89043e-13
0.00138989
6.69489e-13
0.00138989
6.4985e-13
0.00138989
6.30163e-13
0.00138989
6.1046e-13
0.00138989
5.90777e-13
0.00138989
5.71146e-13
0.00138989
5.51598e-13
0.00138989
5.32161e-13
0.00138989
5.12864e-13
0.00138989
4.93734e-13
0.00138989
4.74801e-13
0.00138989
4.56088e-13
0.00138989
4.37615e-13
0.00138989
4.19408e-13
0.00138989
4.01493e-13
0.00138989
3.83887e-13
0.00138989
3.66608e-13
0.00138989
3.49676e-13
0.00138989
3.33106e-13
0.00138989
3.16918e-13
0.00138989
3.01124e-13
0.00138989
2.85738e-13
0.00138989
2.70771e-13
0.00138989
2.56233e-13
0.00138989
2.42139e-13
0.00138989
2.28495e-13
0.00138989
2.15309e-13
0.00138989
2.02586e-13
0.00138989
1.90328e-13
0.00138989
1.78541e-13
0.00138989
1.67233e-13
0.00138989
1.56404e-13
0.00138989
1.46047e-13
0.00138989
1.36167e-13
0.00138989
1.2676e-13
0.00138989
1.17827e-13
0.00138989
1.09366e-13
0.00138989
1.01364e-13
0.00138989
9.38224e-14
0.00138989
8.67329e-14
0.00138989
8.00891e-14
0.00138989
7.38819e-14
0.00138989
6.81028e-14
0.00138989
6.27422e-14
0.00138989
5.77879e-14
0.00138989
5.32353e-14
0.00138989
4.90711e-14
0.00138989
4.52762e-14
0.00138989
4.18422e-14
0.00138989
3.87586e-14
0.00138989
3.60126e-14
0.00138989
3.35877e-14
0.00138989
3.14696e-14
0.00138989
2.96472e-14
0.00138989
2.81035e-14
0.00138989
2.68267e-14
0.00138989
2.58012e-14
0.00138989
2.50095e-14
0.00138989
2.44405e-14
0.00138989
2.40769e-14
0.00138989
2.39098e-14
0.00138989
2.39225e-14
0.00138989
2.40942e-14
0.00138989
2.44185e-14
0.00138989
2.488e-14
0.00138989
2.54674e-14
0.00138989
2.61643e-14
0.00138989
2.69556e-14
0.00138989
2.78319e-14
0.00138989
2.87778e-14
0.00138989
2.97902e-14
0.00138989
3.08537e-14
0.00138989
3.19516e-14
0.00138989
3.30772e-14
0.00138989
3.42221e-14
0.00138989
3.53789e-14
0.00138989
3.65334e-14
0.00138989
3.76769e-14
0.00138989
3.88073e-14
0.00138989
3.99134e-14
0.00138989
4.09892e-14
0.00138989
4.20309e-14
0.00138989
4.30258e-14
0.00138989
4.39719e-14
0.00138989
4.48644e-14
0.00138989
4.57022e-14
0.00138989
4.64757e-14
0.00138989
4.718e-14
0.00138989
4.78212e-14
0.00138989
4.83884e-14
0.00138989
4.88832e-14
0.00138989
4.9305e-14
0.00138989
4.96486e-14
0.00138989
4.99126e-14
0.00138989
5.00961e-14
0.00138989
5.02073e-14
0.00138989
5.02356e-14
0.00138989
5.0184e-14
0.00138989
5.00594e-14
0.00138989
4.98511e-14
0.00138989
4.95695e-14
0.00138989
4.92171e-14
0.00138989
4.87863e-14
0.00138989
4.82839e-14
0.00138989
4.77117e-14
0.00138989
4.70737e-14
0.00138989
4.63719e-14
0.00138989
4.56051e-14
0.00138989
4.47765e-14
0.00138989
4.38865e-14
0.00138989
4.29468e-14
0.00138989
4.19529e-14
0.00138989
4.09031e-14
0.00138989
3.98116e-14
0.00138989
3.86732e-14
0.00138989
3.74934e-14
0.00138989
3.62756e-14
0.00138989
3.50189e-14
0.00138989
3.37263e-14
0.00138989
3.24002e-14
0.00138989
3.10526e-14
0.00138989
2.96753e-14
0.00138989
2.82695e-14
0.00138989
2.68493e-14
0.00138989
2.54063e-14
0.00138989
2.39454e-14
0.00138989
2.24729e-14
0.00138989
2.09872e-14
0.00138989
1.94909e-14
0.00138989
1.79851e-14
0.00138989
1.64762e-14
0.00138989
1.49591e-14
0.00138989
1.34381e-14
0.00138989
1.19183e-14
0.00138989
1.03938e-14
0.00138989
8.87465e-15
0.00138989
7.35511e-15
0.00138989
5.83881e-15
0.00138989
4.33413e-15
0.00138989
2.82901e-15
0.00138989
1.33053e-15
0.00138989
-1.60162e-16
0.00138989
-1.64352e-15
0.00138989
-3.11062e-15
0.00138989
-4.57453e-15
0.00138989
-6.02659e-15
0.00138989
-7.47193e-15
0.00138989
-8.9071e-15
0.00138989
-1.03204e-14
0.00138989
-1.17313e-14
0.00138989
-1.31299e-14
0.00138989
-1.45165e-14
0.00138989
-1.58927e-14
0.00138989
-1.72492e-14
0.00138989
-1.86004e-14
0.00138989
-1.99404e-14
0.00138989
-2.12663e-14
0.00138989
-2.2584e-14
0.00138989
-2.38878e-14
0.00138989
-2.51841e-14
0.00138989
-2.64708e-14
0.00138989
-2.77499e-14
0.00138989
-2.90188e-14
0.00138989
-3.02751e-14
0.00138989
-3.15328e-14
0.00138989
-3.27835e-14
0.00138989
-3.40351e-14
0.00138989
-3.52845e-14
0.00138989
-3.65257e-14
0.00138989
-3.77794e-14
0.00138989
-3.90338e-14
0.00138989
-4.03008e-14
0.00138989
-4.15822e-14
0.00138989
-4.28664e-14
0.00138989
-4.4182e-14
0.00138989
-4.55221e-14
0.00138989
-4.68901e-14
0.00138989
-4.83006e-14
0.00138989
-4.97463e-14
0.00138989
-5.12504e-14
0.00138989
-5.28185e-14
0.00138989
-5.44524e-14
0.00138989
-5.61698e-14
0.00138989
-5.79782e-14
0.00138989
-5.98978e-14
0.00138989
-6.19434e-14
0.00138989
-6.41282e-14
0.00138989
-6.64724e-14
0.00138989
-6.89935e-14
0.00138989
-7.17236e-14
0.00138989
-7.46798e-14
0.00138989
-7.78968e-14
0.00138989
-8.14046e-14
0.00138989
-8.52257e-14
0.00138989
-8.94171e-14
0.00138989
-9.40101e-14
0.00138989
-9.90541e-14
0.00138989
-1.04598e-13
0.00138989
-1.10683e-13
0.00138989
-1.17393e-13
0.00138989
-1.2478e-13
0.00138989
-1.32912e-13
0.00138989
-1.41873e-13
0.00138989
-1.51734e-13
0.00138989
-1.62593e-13
0.00138989
-1.74546e-13
0.00138989
-1.87689e-13
0.00138989
-2.02126e-13
0.00138989
-2.17968e-13
0.00138989
-2.35342e-13
0.00138989
-2.54362e-13
0.00138989
-2.75151e-13
0.00138989
-2.97828e-13
0.00138989
-3.22514e-13
0.00138989
-3.49332e-13
0.00138989
-3.78377e-13
0.00138989
-4.09748e-13
0.00138989
-4.43511e-13
0.00138989
-4.79684e-13
0.00138989
-5.18266e-13
0.00138989
-5.59146e-13
0.00138989
-6.0211e-13
0.00138989
-6.46772e-13
0.00138989
-6.92473e-13
0.00138989
-7.38217e-13
0.00138989
-7.82404e-13
0.00138989
-8.22602e-13
0.00138989
-8.55139e-13
0.00138989
-8.74452e-13
0.00138989
-8.72209e-13
0.00138989
-8.35878e-13
0.00138989
-7.46544e-13
0.00138989
-5.75652e-13
0.00138989
-2.79715e-13
0.00138989
2.05232e-13
0.00138989
9.60796e-13
0.00138989
2.11388e-12
0.00138989
3.80511e-12
0.00138989
6.15466e-12
0.00138989
9.13746e-12
0.00138989
1.22125e-11
0.00138989
1.38492e-11
1.19254e-11
0.00228497
1.10618e-11
0.00228497
-5.35458e-13
0.00228497
-9.9596e-12
0.00228497
-1.50206e-11
0.00228497
-1.68336e-11
0.00228497
-1.70068e-11
0.00228497
-1.63563e-11
0.00228497
-1.52814e-11
0.00228497
-1.40246e-11
0.00228497
-1.27177e-11
0.00228497
-1.14312e-11
0.00228497
-1.02024e-11
0.00228497
-9.04996e-12
0.00228497
-7.98199e-12
0.00228497
-6.99998e-12
0.00228497
-6.10165e-12
0.00228497
-5.28255e-12
0.00228497
-4.53725e-12
0.00228497
-3.8599e-12
0.00228497
-3.24476e-12
0.00228497
-2.68632e-12
0.00228497
-2.17948e-12
0.00228497
-1.71958e-12
0.00228497
-1.30235e-12
0.00228497
-9.23938e-13
0.00228497
-5.80852e-13
0.00228497
-2.69955e-13
0.00228497
1.17479e-14
0.00228497
2.66621e-13
0.00228497
4.97206e-13
0.00228497
7.05532e-13
0.00228497
8.93563e-13
0.00228497
1.06304e-12
0.00228497
1.21555e-12
0.00228497
1.35251e-12
0.00228497
1.47523e-12
0.00228497
1.58488e-12
0.00228497
1.68252e-12
0.00228497
1.76912e-12
0.00228497
1.84555e-12
0.00228497
1.91262e-12
0.00228497
1.97104e-12
0.00228497
2.02148e-12
0.00228497
2.06453e-12
0.00228497
2.10075e-12
0.00228497
2.13064e-12
0.00228497
2.15465e-12
0.00228497
2.1732e-12
0.00228497
2.18668e-12
0.00228497
2.19545e-12
0.00228497
2.19984e-12
0.00228497
2.20015e-12
0.00228497
2.19666e-12
0.00228497
2.18963e-12
0.00228497
2.17931e-12
0.00228497
2.16592e-12
0.00228497
2.14968e-12
0.00228497
2.13078e-12
0.00228497
2.10941e-12
0.00228497
2.08575e-12
0.00228497
2.05997e-12
0.00228497
2.03221e-12
0.00228497
2.00264e-12
0.00228497
1.97138e-12
0.00228497
1.93859e-12
0.00228497
1.90438e-12
0.00228497
1.86888e-12
0.00228497
1.83221e-12
0.00228497
1.79448e-12
0.00228497
1.7558e-12
0.00228497
1.71627e-12
0.00228497
1.67601e-12
0.00228497
1.6351e-12
0.00228497
1.59363e-12
0.00228497
1.55171e-12
0.00228497
1.50942e-12
0.00228497
1.46684e-12
0.00228497
1.42405e-12
0.00228497
1.38114e-12
0.00228497
1.33818e-12
0.00228497
1.29524e-12
0.00228497
1.2524e-12
0.00228497
1.20973e-12
0.00228497
1.16729e-12
0.00228497
1.12515e-12
0.00228497
1.08336e-12
0.00228497
1.04199e-12
0.00228497
1.0011e-12
0.00228497
9.60727e-13
0.00228497
9.20931e-13
0.00228497
8.81759e-13
0.00228497
8.4326e-13
0.00228497
8.05474e-13
0.00228497
7.68443e-13
0.00228497
7.32203e-13
0.00228497
6.96785e-13
0.00228497
6.6223e-13
0.00228497
6.28563e-13
0.00228497
5.95812e-13
0.00228497
5.64001e-13
0.00228497
5.33149e-13
0.00228497
5.0328e-13
0.00228497
4.74408e-13
0.00228497
4.46549e-13
0.00228497
4.19713e-13
0.00228497
3.93903e-13
0.00228497
3.69127e-13
0.00228497
3.45397e-13
0.00228497
3.22709e-13
0.00228497
3.01058e-13
0.00228497
2.80444e-13
0.00228497
2.60857e-13
0.00228497
2.42296e-13
0.00228497
2.24752e-13
0.00228497
2.08204e-13
0.00228497
1.92644e-13
0.00228497
1.78055e-13
0.00228497
1.64422e-13
0.00228497
1.51725e-13
0.00228497
1.3994e-13
0.00228497
1.29047e-13
0.00228497
1.19018e-13
0.00228497
1.09839e-13
0.00228497
1.01479e-13
0.00228497
9.39033e-14
0.00228497
8.70894e-14
0.00228497
8.10097e-14
0.00228497
7.56371e-14
0.00228497
7.09349e-14
0.00228497
6.68736e-14
0.00228497
6.34259e-14
0.00228497
6.05578e-14
0.00228497
5.82396e-14
0.00228497
5.64372e-14
0.00228497
5.51174e-14
0.00228497
5.42518e-14
0.00228497
5.38063e-14
0.00228497
5.37562e-14
0.00228497
5.4066e-14
0.00228497
5.46995e-14
0.00228497
5.56353e-14
0.00228497
5.68411e-14
0.00228497
5.82929e-14
0.00228497
5.99579e-14
0.00228497
6.18046e-14
0.00228497
6.38109e-14
0.00228497
6.59506e-14
0.00228497
6.82045e-14
0.00228497
7.0547e-14
0.00228497
7.29491e-14
0.00228497
7.53904e-14
0.00228497
7.78556e-14
0.00228497
8.03264e-14
0.00228497
8.27759e-14
0.00228497
8.51895e-14
0.00228497
8.7557e-14
0.00228497
8.98593e-14
0.00228497
9.20805e-14
0.00228497
9.42157e-14
0.00228497
9.62438e-14
0.00228497
9.81532e-14
0.00228497
9.99406e-14
0.00228497
1.01597e-13
0.00228497
1.03108e-13
0.00228497
1.04471e-13
0.00228497
1.05685e-13
0.00228497
1.06734e-13
0.00228497
1.07626e-13
0.00228497
1.08354e-13
0.00228497
1.08911e-13
0.00228497
1.09297e-13
0.00228497
1.0951e-13
0.00228497
1.09558e-13
0.00228497
1.09437e-13
0.00228497
1.09144e-13
0.00228497
1.08688e-13
0.00228497
1.08061e-13
0.00228497
1.07274e-13
0.00228497
1.06333e-13
0.00228497
1.05234e-13
0.00228497
1.03985e-13
0.00228497
1.02586e-13
0.00228497
1.01049e-13
0.00228497
9.93774e-14
0.00228497
9.75742e-14
0.00228497
9.56425e-14
0.00228497
9.35869e-14
0.00228497
9.14249e-14
0.00228497
8.91517e-14
0.00228497
8.67709e-14
0.00228497
8.43006e-14
0.00228497
8.17353e-14
0.00228497
7.90876e-14
0.00228497
7.63642e-14
0.00228497
7.3564e-14
0.00228497
7.06969e-14
0.00228497
6.77654e-14
0.00228497
6.47832e-14
0.00228497
6.17524e-14
0.00228497
5.867e-14
0.00228497
5.55527e-14
0.00228497
5.24011e-14
0.00228497
4.92161e-14
0.00228497
4.60099e-14
0.00228497
4.27852e-14
0.00228497
3.95441e-14
0.00228497
3.6289e-14
0.00228497
3.30315e-14
0.00228497
2.97657e-14
0.00228497
2.6498e-14
0.00228497
2.32383e-14
0.00228497
1.99788e-14
0.00228497
1.67356e-14
0.00228497
1.34998e-14
0.00228497
1.02783e-14
0.00228497
7.08216e-15
0.00228497
3.89774e-15
0.00228497
7.35721e-16
0.00228497
-2.40249e-15
0.00228497
-5.51606e-15
0.00228497
-8.59616e-15
0.00228497
-1.16513e-14
0.00228497
-1.46787e-14
0.00228497
-1.76793e-14
0.00228497
-2.06472e-14
0.00228497
-2.35731e-14
0.00228497
-2.64747e-14
0.00228497
-2.93414e-14
0.00228497
-3.21745e-14
0.00228497
-3.49724e-14
0.00228497
-3.77288e-14
0.00228497
-4.04575e-14
0.00228497
-4.31492e-14
0.00228497
-4.58083e-14
0.00228497
-4.84364e-14
0.00228497
-5.10243e-14
0.00228497
-5.35845e-14
0.00228497
-5.61155e-14
0.00228497
-5.86171e-14
0.00228497
-6.10868e-14
0.00228497
-6.35246e-14
0.00228497
-6.595e-14
0.00228497
-6.83532e-14
0.00228497
-7.07413e-14
0.00228497
-7.31166e-14
0.00228497
-7.54726e-14
0.00228497
-7.78377e-14
0.00228497
-8.02015e-14
0.00228497
-8.25785e-14
0.00228497
-8.49772e-14
0.00228497
-8.73901e-14
0.00228497
-8.98515e-14
0.00228497
-9.23602e-14
0.00228497
-9.49302e-14
0.00228497
-9.75802e-14
0.00228497
-1.00318e-13
0.00228497
-1.03175e-13
0.00228497
-1.06169e-13
0.00228497
-1.09315e-13
0.00228497
-1.12645e-13
0.00228497
-1.16183e-13
0.00228497
-1.19969e-13
0.00228497
-1.24038e-13
0.00228497
-1.28426e-13
0.00228497
-1.33175e-13
0.00228497
-1.38333e-13
0.00228497
-1.4396e-13
0.00228497
-1.50106e-13
0.00228497
-1.56845e-13
0.00228497
-1.64241e-13
0.00228497
-1.72361e-13
0.00228497
-1.81309e-13
0.00228497
-1.91168e-13
0.00228497
-2.02039e-13
0.00228497
-2.14028e-13
0.00228497
-2.27242e-13
0.00228497
-2.41837e-13
0.00228497
-2.57934e-13
0.00228497
-2.75677e-13
0.00228497
-2.95237e-13
0.00228497
-3.16774e-13
0.00228497
-3.40482e-13
0.00228497
-3.66554e-13
0.00228497
-3.9519e-13
0.00228497
-4.26601e-13
0.00228497
-4.61012e-13
0.00228497
-4.98667e-13
0.00228497
-5.39788e-13
0.00228497
-5.84615e-13
0.00228497
-6.33375e-13
0.00228497
-6.86283e-13
0.00228497
-7.43548e-13
0.00228497
-8.05331e-13
0.00228497
-8.71768e-13
0.00228497
-9.42909e-13
0.00228497
-1.01871e-12
0.00228497
-1.09902e-12
0.00228497
-1.18348e-12
0.00228497
-1.27148e-12
0.00228497
-1.362e-12
0.00228497
-1.45353e-12
0.00228497
-1.54378e-12
0.00228497
-1.62933e-12
0.00228497
-1.70511e-12
0.00228497
-1.76368e-12
0.00228497
-1.79407e-12
0.00228497
-1.78013e-12
0.00228497
-1.69811e-12
0.00228497
-1.51312e-12
0.00228497
-1.17419e-12
0.00228497
-6.07334e-13
0.00228497
2.91591e-13
0.00228497
1.65718e-12
0.00228497
3.67258e-12
0.00228497
6.52741e-12
0.00228497
1.03505e-11
0.00228497
1.50227e-11
0.00228497
1.97207e-11
0.00228497
2.22983e-11
1.97605e-11
0.00315634
1.5811e-11
0.00315634
1.48395e-12
0.00315634
-1.1268e-11
0.00315634
-1.90982e-11
0.00315634
-2.27255e-11
0.00315634
-2.39192e-11
0.00315634
-2.37177e-11
0.00315634
-2.26925e-11
0.00315634
-2.12242e-11
0.00315634
-1.95443e-11
0.00315634
-1.7791e-11
0.00315634
-1.6047e-11
0.00315634
-1.43611e-11
0.00315634
-1.2761e-11
0.00315634
-1.1261e-11
0.00315634
-9.86666e-12
0.00315634
-8.57823e-12
0.00315634
-7.39266e-12
0.00315634
-6.30497e-12
0.00315634
-5.30924e-12
0.00315634
-4.39914e-12
0.00315634
-3.56833e-12
0.00315634
-2.81066e-12
0.00315634
-2.12029e-12
0.00315634
-1.49175e-12
0.00315634
-9.19961e-13
0.00315634
-4.00222e-13
0.00315634
7.18657e-14
0.00315634
5.00034e-13
0.00315634
8.88168e-13
0.00315634
1.2395e-12
0.00315634
1.55709e-12
0.00315634
1.84371e-12
0.00315634
2.10189e-12
0.00315634
2.33395e-12
0.00315634
2.54199e-12
0.00315634
2.72794e-12
0.00315634
2.89355e-12
0.00315634
3.0404e-12
0.00315634
3.16996e-12
0.00315634
3.28356e-12
0.00315634
3.3824e-12
0.00315634
3.46759e-12
0.00315634
3.54015e-12
0.00315634
3.601e-12
0.00315634
3.651e-12
0.00315634
3.69092e-12
0.00315634
3.72147e-12
0.00315634
3.74333e-12
0.00315634
3.7571e-12
0.00315634
3.76335e-12
0.00315634
3.76259e-12
0.00315634
3.75531e-12
0.00315634
3.74196e-12
0.00315634
3.72296e-12
0.00315634
3.69871e-12
0.00315634
3.66957e-12
0.00315634
3.63588e-12
0.00315634
3.59797e-12
0.00315634
3.55614e-12
0.00315634
3.51069e-12
0.00315634
3.46188e-12
0.00315634
3.40998e-12
0.00315634
3.35523e-12
0.00315634
3.29786e-12
0.00315634
3.23811e-12
0.00315634
3.17619e-12
0.00315634
3.11229e-12
0.00315634
3.04663e-12
0.00315634
2.97939e-12
0.00315634
2.91076e-12
0.00315634
2.8409e-12
0.00315634
2.77e-12
0.00315634
2.6982e-12
0.00315634
2.62568e-12
0.00315634
2.55258e-12
0.00315634
2.47906e-12
0.00315634
2.40525e-12
0.00315634
2.33128e-12
0.00315634
2.2573e-12
0.00315634
2.18343e-12
0.00315634
2.10979e-12
0.00315634
2.0365e-12
0.00315634
1.96368e-12
0.00315634
1.89144e-12
0.00315634
1.81987e-12
0.00315634
1.74908e-12
0.00315634
1.67916e-12
0.00315634
1.61021e-12
0.00315634
1.5423e-12
0.00315634
1.47553e-12
0.00315634
1.40997e-12
0.00315634
1.34568e-12
0.00315634
1.28274e-12
0.00315634
1.22121e-12
0.00315634
1.16114e-12
0.00315634
1.1026e-12
0.00315634
1.04562e-12
0.00315634
9.90256e-13
0.00315634
9.3654e-13
0.00315634
8.84507e-13
0.00315634
8.34188e-13
0.00315634
7.85611e-13
0.00315634
7.38797e-13
0.00315634
6.93759e-13
0.00315634
6.50506e-13
0.00315634
6.09043e-13
0.00315634
5.69386e-13
0.00315634
5.31529e-13
0.00315634
4.95458e-13
0.00315634
4.6117e-13
0.00315634
4.2865e-13
0.00315634
3.97886e-13
0.00315634
3.68858e-13
0.00315634
3.41539e-13
0.00315634
3.15906e-13
0.00315634
2.91925e-13
0.00315634
2.69571e-13
0.00315634
2.48802e-13
0.00315634
2.29583e-13
0.00315634
2.11871e-13
0.00315634
1.95623e-13
0.00315634
1.80803e-13
0.00315634
1.6736e-13
0.00315634
1.55237e-13
0.00315634
1.44391e-13
0.00315634
1.34776e-13
0.00315634
1.26338e-13
0.00315634
1.19019e-13
0.00315634
1.12766e-13
0.00315634
1.07529e-13
0.00315634
1.03252e-13
0.00315634
9.98781e-14
0.00315634
9.7354e-14
0.00315634
9.5624e-14
0.00315634
9.46338e-14
0.00315634
9.43328e-14
0.00315634
9.46695e-14
0.00315634
9.55848e-14
0.00315634
9.70258e-14
0.00315634
9.8945e-14
0.00315634
1.01291e-13
0.00315634
1.04024e-13
0.00315634
1.07093e-13
0.00315634
1.10439e-13
0.00315634
1.14028e-13
0.00315634
1.17818e-13
0.00315634
1.21771e-13
0.00315634
1.25843e-13
0.00315634
1.29993e-13
0.00315634
1.34186e-13
0.00315634
1.38393e-13
0.00315634
1.42583e-13
0.00315634
1.4672e-13
0.00315634
1.50775e-13
0.00315634
1.54726e-13
0.00315634
1.58547e-13
0.00315634
1.62215e-13
0.00315634
1.65715e-13
0.00315634
1.6902e-13
0.00315634
1.72109e-13
0.00315634
1.74975e-13
0.00315634
1.77605e-13
0.00315634
1.79979e-13
0.00315634
1.82093e-13
0.00315634
1.83941e-13
0.00315634
1.85502e-13
0.00315634
1.86788e-13
0.00315634
1.87788e-13
0.00315634
1.88492e-13
0.00315634
1.88904e-13
0.00315634
1.89021e-13
0.00315634
1.88851e-13
0.00315634
1.88392e-13
0.00315634
1.87644e-13
0.00315634
1.86615e-13
0.00315634
1.85301e-13
0.00315634
1.83717e-13
0.00315634
1.81868e-13
0.00315634
1.79757e-13
0.00315634
1.77396e-13
0.00315634
1.74787e-13
0.00315634
1.71943e-13
0.00315634
1.68877e-13
0.00315634
1.65594e-13
0.00315634
1.62097e-13
0.00315634
1.584e-13
0.00315634
1.54527e-13
0.00315634
1.5047e-13
0.00315634
1.46244e-13
0.00315634
1.41867e-13
0.00315634
1.37339e-13
0.00315634
1.32681e-13
0.00315634
1.279e-13
0.00315634
1.22999e-13
0.00315634
1.17991e-13
0.00315634
1.12885e-13
0.00315634
1.07701e-13
0.00315634
1.02443e-13
0.00315634
9.71102e-14
0.00315634
9.17229e-14
0.00315634
8.62873e-14
0.00315634
8.08093e-14
0.00315634
7.53003e-14
0.00315634
6.97699e-14
0.00315634
6.42227e-14
0.00315634
5.86634e-14
0.00315634
5.31062e-14
0.00315634
4.75466e-14
0.00315634
4.19977e-14
0.00315634
3.64677e-14
0.00315634
3.09545e-14
0.00315634
2.54734e-14
0.00315634
2.00192e-14
0.00315634
1.46012e-14
0.00315634
9.23445e-15
0.00315634
3.90197e-15
0.00315634
-1.38029e-15
0.00315634
-6.60895e-15
0.00315634
-1.17863e-14
0.00315634
-1.68952e-14
0.00315634
-2.19467e-14
0.00315634
-2.69379e-14
0.00315634
-3.18671e-14
0.00315634
-3.67295e-14
0.00315634
-4.1513e-14
0.00315634
-4.62296e-14
0.00315634
-5.08737e-14
0.00315634
-5.54465e-14
0.00315634
-5.99418e-14
0.00315634
-6.43542e-14
0.00315634
-6.86983e-14
0.00315634
-7.29643e-14
0.00315634
-7.71564e-14
0.00315634
-8.12746e-14
0.00315634
-8.5308e-14
0.00315634
-8.92741e-14
0.00315634
-9.31713e-14
0.00315634
-9.69942e-14
0.00315634
-1.00746e-13
0.00315634
-1.04428e-13
0.00315634
-1.08059e-13
0.00315634
-1.11633e-13
0.00315634
-1.15156e-13
0.00315634
-1.18635e-13
0.00315634
-1.22067e-13
0.00315634
-1.25482e-13
0.00315634
-1.28877e-13
0.00315634
-1.3227e-13
0.00315634
-1.35676e-13
0.00315634
-1.39091e-13
0.00315634
-1.42557e-13
0.00315634
-1.46086e-13
0.00315634
-1.49698e-13
0.00315634
-1.53424e-13
0.00315634
-1.57284e-13
0.00315634
-1.61325e-13
0.00315634
-1.65577e-13
0.00315634
-1.70077e-13
0.00315634
-1.74875e-13
0.00315634
-1.80016e-13
0.00315634
-1.85565e-13
0.00315634
-1.91584e-13
0.00315634
-1.98139e-13
0.00315634
-2.05305e-13
0.00315634
-2.13164e-13
0.00315634
-2.21818e-13
0.00315634
-2.3136e-13
0.00315634
-2.41913e-13
0.00315634
-2.53593e-13
0.00315634
-2.66523e-13
0.00315634
-2.80866e-13
0.00315634
-2.96773e-13
0.00315634
-3.1442e-13
0.00315634
-3.33986e-13
0.00315634
-3.55667e-13
0.00315634
-3.79708e-13
0.00315634