/*--------------------------------*- C++ -*----------------------------------*\
| =========                 |                                                 |
| \\      /  F ield         | OpenFOAM: The Open Source CFD Toolbox           |
|  \\    /   O peration     | Version:  2112                                  |
|   \\  /    A nd           | Website:  www.openfoam.com                      |
|    \\/     M anipulation  |                                                 |
\*---------------------------------------------------------------------------*/
FoamFile
{
    version     2.0;
    format      ascii;
    arch        "LSB;label=32;scalar=64";
    class       volVectorField;
    location    "5.96";
    object      U;
}
// * * * * * * * * * * * * * * * * * * * * * * * * * * * * * * * * * * * * * //

dimensions      [0 1 -1 0 0 0 0];

internalField   nonuniform List<vector> 
25600
(
(0.0376929 2.45146e-11 0)
(0.0376929 -4.80993e-11 0)
(0.0376929 -7.96464e-11 0)
(0.0376929 -7.56435e-11 0)
(0.0376929 -6.27295e-11 0)
(0.0376929 -5.1639e-11 0)
(0.0376929 -4.26223e-11 0)
(0.0376929 -3.53595e-11 0)
(0.0376929 -2.95392e-11 0)
(0.0376929 -2.47682e-11 0)
(0.0376929 -2.07997e-11 0)
(0.0376929 -1.74847e-11 0)
(0.0376929 -1.47199e-11 0)
(0.0376929 -1.24188e-11 0)
(0.0376929 -1.05026e-11 0)
(0.0376929 -8.8988e-12 0)
(0.0376929 -7.545e-12 0)
(0.0376929 -6.38898e-12 0)
(0.0376929 -5.39009e-12 0)
(0.0376929 -4.5171e-12 0)
(0.0376929 -3.74716e-12 0)
(0.0376929 -3.06302e-12 0)
(0.0376929 -2.45195e-12 0)
(0.0376929 -1.90377e-12 0)
(0.0376929 -1.4101e-12 0)
(0.0376929 -9.63198e-13 0)
(0.0376929 -5.61376e-13 0)
(0.0376929 -2.18682e-13 0)
(0.0376929 7.89163e-14 0)
(0.0376929 3.71579e-13 0)
(0.0376929 6.41682e-13 0)
(0.0376929 8.8469e-13 0)
(0.0376929 1.10365e-12 0)
(0.0376929 1.30172e-12 0)
(0.0376929 1.48111e-12 0)
(0.0376929 1.64362e-12 0)
(0.0376929 1.79085e-12 0)
(0.0376929 1.92416e-12 0)
(0.0376929 2.04469e-12 0)
(0.0376929 2.15353e-12 0)
(0.0376929 2.25151e-12 0)
(0.0376929 2.33943e-12 0)
(0.0376929 2.418e-12 0)
(0.0376929 2.48784e-12 0)
(0.0376929 2.54957e-12 0)
(0.0376929 2.60368e-12 0)
(0.0376929 2.65064e-12 0)
(0.0376929 2.69087e-12 0)
(0.0376929 2.72478e-12 0)
(0.0376929 2.75276e-12 0)
(0.0376929 2.77516e-12 0)
(0.0376929 2.7923e-12 0)
(0.0376929 2.80441e-12 0)
(0.0376929 2.81188e-12 0)
(0.0376929 2.81497e-12 0)
(0.0376929 2.81373e-12 0)
(0.0376929 2.80866e-12 0)
(0.0376929 2.79988e-12 0)
(0.0376929 2.78753e-12 0)
(0.0376929 2.77189e-12 0)
(0.0376929 2.75305e-12 0)
(0.0376929 2.7314e-12 0)
(0.0376929 2.70685e-12 0)
(0.0376929 2.67971e-12 0)
(0.0376929 2.65018e-12 0)
(0.0376929 2.61816e-12 0)
(0.0376929 2.58409e-12 0)
(0.0376929 2.54795e-12 0)
(0.0376929 2.50989e-12 0)
(0.0376929 2.47006e-12 0)
(0.0376929 2.42856e-12 0)
(0.0376929 2.38554e-12 0)
(0.0376929 2.34108e-12 0)
(0.0376929 2.29532e-12 0)
(0.0376929 2.24838e-12 0)
(0.0376929 2.20031e-12 0)
(0.0376929 2.15129e-12 0)
(0.0376929 2.10137e-12 0)
(0.0376929 2.0507e-12 0)
(0.0376929 1.9994e-12 0)
(0.0376929 1.94734e-12 0)
(0.0376929 1.89489e-12 0)
(0.0376929 1.84212e-12 0)
(0.0376929 1.78898e-12 0)
(0.0376929 1.73564e-12 0)
(0.0376929 1.6822e-12 0)
(0.0376929 1.62862e-12 0)
(0.0376929 1.57518e-12 0)
(0.0376929 1.52194e-12 0)
(0.0376929 1.46883e-12 0)
(0.0376929 1.41592e-12 0)
(0.0376929 1.36345e-12 0)
(0.0376929 1.3115e-12 0)
(0.0376929 1.25999e-12 0)
(0.0376929 1.20897e-12 0)
(0.0376929 1.15864e-12 0)
(0.0376929 1.10913e-12 0)
(0.0376929 1.06023e-12 0)
(0.0376929 1.01229e-12 0)
(0.0376929 9.65184e-13 0)
(0.0376929 9.18812e-13 0)
(0.0376929 8.73654e-13 0)
(0.0376929 8.29464e-13 0)
(0.0376929 7.86309e-13 0)
(0.0376929 7.44395e-13 0)
(0.0376929 7.03415e-13 0)
(0.0376929 6.63607e-13 0)
(0.0376929 6.25182e-13 0)
(0.0376929 5.87957e-13 0)
(0.0376929 5.51918e-13 0)
(0.0376929 5.17151e-13 0)
(0.0376929 4.83537e-13 0)
(0.0376929 4.51454e-13 0)
(0.0376929 4.20751e-13 0)
(0.0376929 3.91111e-13 0)
(0.0376929 3.62832e-13 0)
(0.0376929 3.3602e-13 0)
(0.0376929 3.10538e-13 0)
(0.0376929 2.86222e-13 0)
(0.0376929 2.63222e-13 0)
(0.0376929 2.41679e-13 0)
(0.0376929 2.21281e-13 0)
(0.0376929 2.02145e-13 0)
(0.0376929 1.84472e-13 0)
(0.0376929 1.67868e-13 0)
(0.0376929 1.52338e-13 0)
(0.0376929 1.38039e-13 0)
(0.0376929 1.25106e-13 0)
(0.0376929 1.13169e-13 0)
(0.0376929 1.02223e-13 0)
(0.0376929 9.2408e-14 0)
(0.0376929 8.35563e-14 0)
(0.0376929 7.57936e-14 0)
(0.0376929 6.899e-14 0)
(0.0376929 6.29756e-14 0)
(0.0376929 5.78754e-14 0)
(0.0376929 5.35162e-14 0)
(0.0376929 5.0089e-14 0)
(0.0376929 4.75172e-14 0)
(0.0376929 4.53917e-14 0)
(0.0376929 4.38904e-14 0)
(0.0376929 4.32128e-14 0)
(0.0376929 4.32044e-14 0)
(0.0376929 4.34595e-14 0)
(0.0376929 4.43843e-14 0)
(0.0376929 4.57926e-14 0)
(0.0376929 4.73696e-14 0)
(0.0376929 4.94585e-14 0)
(0.0376929 5.20759e-14 0)
(0.0376929 5.48516e-14 0)
(0.0376929 5.78059e-14 0)
(0.0376929 6.09833e-14 0)
(0.0376929 6.4501e-14 0)
(0.0376929 6.81773e-14 0)
(0.0376929 7.1816e-14 0)
(0.0376929 7.56195e-14 0)
(0.0376929 7.93944e-14 0)
(0.0376929 8.34493e-14 0)
(0.0376929 8.74377e-14 0)
(0.0376929 9.12483e-14 0)
(0.0376929 9.51977e-14 0)
(0.0376929 9.88717e-14 0)
(0.0376929 1.02623e-13 0)
(0.0376929 1.06415e-13 0)
(0.0376929 1.09682e-13 0)
(0.0376929 1.13045e-13 0)
(0.0376929 1.16365e-13 0)
(0.0376929 1.19331e-13 0)
(0.0376929 1.22193e-13 0)
(0.0376929 1.24853e-13 0)
(0.0376929 1.27283e-13 0)
(0.0376929 1.29441e-13 0)
(0.0376929 1.31665e-13 0)
(0.0376929 1.33337e-13 0)
(0.0376929 1.34748e-13 0)
(0.0376929 1.36337e-13 0)
(0.0376929 1.37213e-13 0)
(0.0376929 1.38072e-13 0)
(0.0376929 1.38842e-13 0)
(0.0376929 1.39204e-13 0)
(0.0376929 1.39257e-13 0)
(0.0376929 1.39014e-13 0)
(0.0376929 1.38799e-13 0)
(0.0376929 1.38328e-13 0)
(0.0376929 1.37478e-13 0)
(0.0376929 1.36503e-13 0)
(0.0376929 1.3512e-13 0)
(0.0376929 1.33704e-13 0)
(0.0376929 1.32249e-13 0)
(0.0376929 1.30191e-13 0)
(0.0376929 1.28158e-13 0)
(0.0376929 1.26067e-13 0)
(0.0376929 1.236e-13 0)
(0.0376929 1.21043e-13 0)
(0.0376929 1.18315e-13 0)
(0.0376929 1.15396e-13 0)
(0.0376929 1.12272e-13 0)
(0.0376929 1.09307e-13 0)
(0.0376929 1.05856e-13 0)
(0.0376929 1.02244e-13 0)
(0.0376929 9.89528e-14 0)
(0.0376929 9.50841e-14 0)
(0.0376929 9.12763e-14 0)
(0.0376929 8.75843e-14 0)
(0.0376929 8.34843e-14 0)
(0.0376929 7.93467e-14 0)
(0.0376929 7.5181e-14 0)
(0.0376929 7.10406e-14 0)
(0.0376929 6.67958e-14 0)
(0.0376929 6.23591e-14 0)
(0.0376929 5.79881e-14 0)
(0.0376929 5.3413e-14 0)
(0.0376929 4.88148e-14 0)
(0.0376929 4.4246e-14 0)
(0.0376929 3.94843e-14 0)
(0.0376929 3.48462e-14 0)
(0.0376929 3.0091e-14 0)
(0.0376929 2.51575e-14 0)
(0.0376929 2.00378e-14 0)
(0.0376929 1.51147e-14 0)
(0.0376929 1.0435e-14 0)
(0.0376929 5.28993e-15 0)
(0.0376929 6.32477e-16 0)
(0.0376929 -4.45929e-15 0)
(0.0376929 -9.615e-15 0)
(0.0376929 -1.41643e-14 0)
(0.0376929 -1.94225e-14 0)
(0.0376929 -2.44136e-14 0)
(0.0376929 -2.94389e-14 0)
(0.0376929 -3.4798e-14 0)
(0.0376929 -3.95723e-14 0)
(0.0376929 -4.48125e-14 0)
(0.0376929 -5.0226e-14 0)
(0.0376929 -5.52675e-14 0)
(0.0376929 -6.05922e-14 0)
(0.0376929 -6.58448e-14 0)
(0.0376929 -7.12728e-14 0)
(0.0376929 -7.67379e-14 0)
(0.0376929 -8.2151e-14 0)
(0.0376929 -8.77251e-14 0)
(0.0376929 -9.31654e-14 0)
(0.0376929 -9.87138e-14 0)
(0.0376929 -1.04375e-13 0)
(0.0376929 -1.10254e-13 0)
(0.0376929 -1.16046e-13 0)
(0.0376929 -1.21668e-13 0)
(0.0376929 -1.27835e-13 0)
(0.0376929 -1.33542e-13 0)
(0.0376929 -1.39727e-13 0)
(0.0376929 -1.46057e-13 0)
(0.0376929 -1.5182e-13 0)
(0.0376929 -1.5835e-13 0)
(0.0376929 -1.64647e-13 0)
(0.0376929 -1.71025e-13 0)
(0.0376929 -1.77814e-13 0)
(0.0376929 -1.84075e-13 0)
(0.0376929 -1.90859e-13 0)
(0.0376929 -1.97883e-13 0)
(0.0376929 -2.04603e-13 0)
(0.0376929 -2.11708e-13 0)
(0.0376929 -2.18787e-13 0)
(0.0376929 -2.2614e-13 0)
(0.0376929 -2.33675e-13 0)
(0.0376929 -2.41246e-13 0)
(0.0376929 -2.49132e-13 0)
(0.0376929 -2.57093e-13 0)
(0.0376929 -2.65332e-13 0)
(0.0376929 -2.73923e-13 0)
(0.0376929 -2.8296e-13 0)
(0.0376929 -2.92413e-13 0)
(0.0376929 -3.0215e-13 0)
(0.0376929 -3.12669e-13 0)
(0.0376929 -3.23457e-13 0)
(0.0376929 -3.35549e-13 0)
(0.0376929 -3.48605e-13 0)
(0.0376929 -3.62186e-13 0)
(0.0376929 -3.7759e-13 0)
(0.0376929 -3.94352e-13 0)
(0.0376929 -4.13003e-13 0)
(0.0376929 -4.33875e-13 0)
(0.0376929 -4.5657e-13 0)
(0.0376929 -4.8256e-13 0)
(0.0376929 -5.1175e-13 0)
(0.0376929 -5.44013e-13 0)
(0.0376929 -5.80706e-13 0)
(0.0376929 -6.21781e-13 0)
(0.0376929 -6.6816e-13 0)
(0.0376929 -7.20201e-13 0)
(0.0376929 -7.78585e-13 0)
(0.0376929 -8.43695e-13 0)
(0.0376929 -9.16433e-13 0)
(0.0376929 -9.9797e-13 0)
(0.0376929 -1.08854e-12 0)
(0.0376929 -1.18913e-12 0)
(0.0376929 -1.30084e-12 0)
(0.0376929 -1.42424e-12 0)
(0.0376929 -1.56089e-12 0)
(0.0376929 -1.71105e-12 0)
(0.0376929 -1.87671e-12 0)
(0.0376929 -2.05803e-12 0)
(0.0376929 -2.25487e-12 0)
(0.0376929 -2.46766e-12 0)
(0.0376929 -2.6939e-12 0)
(0.0376929 -2.9289e-12 0)
(0.0376929 -3.16362e-12 0)
(0.0376929 -3.37997e-12 0)
(0.0376929 -3.54939e-12 0)
(0.0376929 -3.62366e-12 0)
(0.0376929 -3.54036e-12 0)
(0.0376929 -3.23061e-12 0)
(0.0376929 -2.61358e-12 0)
(0.0376929 -1.2627e-12 0)
(0.0376929 2.33966e-12 0)
(0.0376929 8.79713e-12 0)
(0.0376929 1.96894e-11 0)
(0.0376929 3.72411e-11 0)
(0.0376929 6.36954e-11 0)
(0.0376929 9.70451e-11 0)
(0.0376929 1.17693e-10 0)
(0.0376929 9.43806e-11 0)
(0.111192 2.80523e-10 0)
(0.111192 -1.24185e-10 0)
(0.111192 -3.96363e-10 0)
(0.111192 -4.93925e-10 0)
(0.111192 -4.93822e-10 0)
(0.111192 -4.60632e-10 0)
(0.111192 -4.17864e-10 0)
(0.111192 -3.73198e-10 0)
(0.111192 -3.3054e-10 0)
(0.111192 -2.91236e-10 0)
(0.111192 -2.55621e-10 0)
(0.111192 -2.23662e-10 0)
(0.111192 -1.95172e-10 0)
(0.111192 -1.69871e-10 0)
(0.111192 -1.47437e-10 0)
(0.111192 -1.27533e-10 0)
(0.111192 -1.09839e-10 0)
(0.111192 -9.40648e-11 0)
(0.111192 -7.9957e-11 0)
(0.111192 -6.73028e-11 0)
(0.111192 -5.59232e-11 0)
(0.111192 -4.56693e-11 0)
(0.111192 -3.64152e-11 0)
(0.111192 -2.80544e-11 0)
(0.111192 -2.04943e-11 0)
(0.111192 -1.3654e-11 0)
(0.111192 -7.4648e-12 0)
(0.111192 -1.87875e-12 0)
(0.111192 3.14993e-12 0)
(0.111192 7.71956e-12 0)
(0.111192 1.18592e-11 0)
(0.111192 1.5601e-11 0)
(0.111192 1.89793e-11 0)
(0.111192 2.20264e-11 0)
(0.111192 2.4771e-11 0)
(0.111192 2.72391e-11 0)
(0.111192 2.94541e-11 0)
(0.111192 3.14367e-11 0)
(0.111192 3.32057e-11 0)
(0.111192 3.47781e-11 0)
(0.111192 3.61691e-11 0)
(0.111192 3.73925e-11 0)
(0.111192 3.84607e-11 0)
(0.111192 3.93853e-11 0)
(0.111192 4.01764e-11 0)
(0.111192 4.08438e-11 0)
(0.111192 4.13959e-11 0)
(0.111192 4.18407e-11 0)
(0.111192 4.21856e-11 0)
(0.111192 4.24373e-11 0)
(0.111192 4.26022e-11 0)
(0.111192 4.26859e-11 0)
(0.111192 4.26939e-11 0)
(0.111192 4.26311e-11 0)
(0.111192 4.25022e-11 0)
(0.111192 4.23115e-11 0)
(0.111192 4.20632e-11 0)
(0.111192 4.17611e-11 0)
(0.111192 4.14087e-11 0)
(0.111192 4.10095e-11 0)
(0.111192 4.05665e-11 0)
(0.111192 4.00831e-11 0)
(0.111192 3.95619e-11 0)
(0.111192 3.90056e-11 0)
(0.111192 3.84171e-11 0)
(0.111192 3.77984e-11 0)
(0.111192 3.71524e-11 0)
(0.111192 3.64811e-11 0)
(0.111192 3.57867e-11 0)
(0.111192 3.50714e-11 0)
(0.111192 3.43371e-11 0)
(0.111192 3.35859e-11 0)
(0.111192 3.28197e-11 0)
(0.111192 3.20404e-11 0)
(0.111192 3.12495e-11 0)
(0.111192 3.04488e-11 0)
(0.111192 2.96401e-11 0)
(0.111192 2.8825e-11 0)
(0.111192 2.80049e-11 0)
(0.111192 2.71814e-11 0)
(0.111192 2.63558e-11 0)
(0.111192 2.55298e-11 0)
(0.111192 2.47047e-11 0)
(0.111192 2.38818e-11 0)
(0.111192 2.30624e-11 0)
(0.111192 2.22476e-11 0)
(0.111192 2.14386e-11 0)
(0.111192 2.06369e-11 0)
(0.111192 1.98434e-11 0)
(0.111192 1.90588e-11 0)
(0.111192 1.82844e-11 0)
(0.111192 1.75213e-11 0)
(0.111192 1.67704e-11 0)
(0.111192 1.60323e-11 0)
(0.111192 1.53079e-11 0)
(0.111192 1.4598e-11 0)
(0.111192 1.39035e-11 0)
(0.111192 1.32248e-11 0)
(0.111192 1.25627e-11 0)
(0.111192 1.19176e-11 0)
(0.111192 1.12899e-11 0)
(0.111192 1.06806e-11 0)
(0.111192 1.00897e-11 0)
(0.111192 9.51771e-12 0)
(0.111192 8.96501e-12 0)
(0.111192 8.43141e-12 0)
(0.111192 7.91743e-12 0)
(0.111192 7.42357e-12 0)
(0.111192 6.94967e-12 0)
(0.111192 6.4956e-12 0)
(0.111192 6.06155e-12 0)
(0.111192 5.64729e-12 0)
(0.111192 5.25328e-12 0)
(0.111192 4.87925e-12 0)
(0.111192 4.52457e-12 0)
(0.111192 4.18943e-12 0)
(0.111192 3.87371e-12 0)
(0.111192 3.57704e-12 0)
(0.111192 3.29892e-12 0)
(0.111192 3.03916e-12 0)
(0.111192 2.79756e-12 0)
(0.111192 2.5734e-12 0)
(0.111192 2.36653e-12 0)
(0.111192 2.17666e-12 0)
(0.111192 2.00276e-12 0)
(0.111192 1.84443e-12 0)
(0.111192 1.70141e-12 0)
(0.111192 1.57331e-12 0)
(0.111192 1.45923e-12 0)
(0.111192 1.35857e-12 0)
(0.111192 1.27099e-12 0)
(0.111192 1.19571e-12 0)
(0.111192 1.13235e-12 0)
(0.111192 1.08013e-12 0)
(0.111192 1.0384e-12 0)
(0.111192 1.00661e-12 0)
(0.111192 9.8396e-13 0)
(0.111192 9.70347e-13 0)
(0.111192 9.64953e-13 0)
(0.111192 9.66619e-13 0)
(0.111192 9.75451e-13 0)
(0.111192 9.90674e-13 0)
(0.111192 1.01161e-12 0)
(0.111192 1.03769e-12 0)
(0.111192 1.06842e-12 0)
(0.111192 1.10317e-12 0)
(0.111192 1.14118e-12 0)
(0.111192 1.18273e-12 0)
(0.111192 1.22683e-12 0)
(0.111192 1.27263e-12 0)
(0.111192 1.32015e-12 0)
(0.111192 1.3688e-12 0)
(0.111192 1.41839e-12 0)
(0.111192 1.46834e-12 0)
(0.111192 1.518e-12 0)
(0.111192 1.56736e-12 0)
(0.111192 1.616e-12 0)
(0.111192 1.66383e-12 0)
(0.111192 1.71037e-12 0)
(0.111192 1.75504e-12 0)
(0.111192 1.79802e-12 0)
(0.111192 1.83873e-12 0)
(0.111192 1.87738e-12 0)
(0.111192 1.91363e-12 0)
(0.111192 1.94676e-12 0)
(0.111192 1.97745e-12 0)
(0.111192 2.00529e-12 0)
(0.111192 2.02995e-12 0)
(0.111192 2.05161e-12 0)
(0.111192 2.07004e-12 0)
(0.111192 2.0851e-12 0)
(0.111192 2.09675e-12 0)
(0.111192 2.1055e-12 0)
(0.111192 2.11048e-12 0)
(0.111192 2.11204e-12 0)
(0.111192 2.11078e-12 0)
(0.111192 2.10559e-12 0)
(0.111192 2.09739e-12 0)
(0.111192 2.08622e-12 0)
(0.111192 2.07157e-12 0)
(0.111192 2.05371e-12 0)
(0.111192 2.03272e-12 0)
(0.111192 2.00909e-12 0)
(0.111192 1.98264e-12 0)
(0.111192 1.95319e-12 0)
(0.111192 1.92109e-12 0)
(0.111192 1.88611e-12 0)
(0.111192 1.849e-12 0)
(0.111192 1.80965e-12 0)
(0.111192 1.7675e-12 0)
(0.111192 1.72354e-12 0)
(0.111192 1.67765e-12 0)
(0.111192 1.62968e-12 0)
(0.111192 1.58e-12 0)
(0.111192 1.52854e-12 0)
(0.111192 1.4754e-12 0)
(0.111192 1.4207e-12 0)
(0.111192 1.36512e-12 0)
(0.111192 1.30784e-12 0)
(0.111192 1.24928e-12 0)
(0.111192 1.19028e-12 0)
(0.111192 1.12979e-12 0)
(0.111192 1.06859e-12 0)
(0.111192 1.0069e-12 0)
(0.111192 9.44251e-13 0)
(0.111192 8.81067e-13 0)
(0.111192 8.17422e-13 0)
(0.111192 7.53541e-13 0)
(0.111192 6.89212e-13 0)
(0.111192 6.24464e-13 0)
(0.111192 5.59708e-13 0)
(0.111192 4.94569e-13 0)
(0.111192 4.29462e-13 0)
(0.111192 3.64344e-13 0)
(0.111192 2.9911e-13 0)
(0.111192 2.34288e-13 0)
(0.111192 1.69362e-13 0)
(0.111192 1.04405e-13 0)
(0.111192 3.9506e-14 0)
(0.111192 -2.49277e-14 0)
(0.111192 -8.86698e-14 0)
(0.111192 -1.52698e-13 0)
(0.111192 -2.15908e-13 0)
(0.111192 -2.79299e-13 0)
(0.111192 -3.42384e-13 0)
(0.111192 -4.04233e-13 0)
(0.111192 -4.666e-13 0)
(0.111192 -5.28334e-13 0)
(0.111192 -5.89713e-13 0)
(0.111192 -6.5104e-13 0)
(0.111192 -7.11174e-13 0)
(0.111192 -7.71506e-13 0)
(0.111192 -8.31644e-13 0)
(0.111192 -8.90959e-13 0)
(0.111192 -9.50215e-13 0)
(0.111192 -1.00897e-12 0)
(0.111192 -1.06761e-12 0)
(0.111192 -1.12597e-12 0)
(0.111192 -1.18398e-12 0)
(0.111192 -1.24176e-12 0)
(0.111192 -1.299e-12 0)
(0.111192 -1.35631e-12 0)
(0.111192 -1.41353e-12 0)
(0.111192 -1.47094e-12 0)
(0.111192 -1.52813e-12 0)
(0.111192 -1.5849e-12 0)
(0.111192 -1.64245e-12 0)
(0.111192 -1.6996e-12 0)
(0.111192 -1.75757e-12 0)
(0.111192 -1.81604e-12 0)
(0.111192 -1.87409e-12 0)
(0.111192 -1.93376e-12 0)
(0.111192 -1.99399e-12 0)
(0.111192 -2.05519e-12 0)
(0.111192 -2.11805e-12 0)
(0.111192 -2.18157e-12 0)
(0.111192 -2.24738e-12 0)
(0.111192 -2.31549e-12 0)
(0.111192 -2.38547e-12 0)
(0.111192 -2.45848e-12 0)
(0.111192 -2.53445e-12 0)
(0.111192 -2.61435e-12 0)
(0.111192 -2.69861e-12 0)
(0.111192 -2.78756e-12 0)
(0.111192 -2.88217e-12 0)
(0.111192 -2.98287e-12 0)
(0.111192 -3.09094e-12 0)
(0.111192 -3.20724e-12 0)
(0.111192 -3.33286e-12 0)
(0.111192 -3.46909e-12 0)
(0.111192 -3.61646e-12 0)
(0.111192 -3.77795e-12 0)
(0.111192 -3.95439e-12 0)
(0.111192 -4.14788e-12 0)
(0.111192 -4.36059e-12 0)
(0.111192 -4.59384e-12 0)
(0.111192 -4.85184e-12 0)
(0.111192 -5.13652e-12 0)
(0.111192 -5.45117e-12 0)
(0.111192 -5.79944e-12 0)
(0.111192 -6.18416e-12 0)
(0.111192 -6.61018e-12 0)
(0.111192 -7.08214e-12 0)
(0.111192 -7.60441e-12 0)
(0.111192 -8.18194e-12 0)
(0.111192 -8.81995e-12 0)
(0.111192 -9.52487e-12 0)
(0.111192 -1.03024e-11 0)
(0.111192 -1.11587e-11 0)
(0.111192 -1.21e-11 0)
(0.111192 -1.31329e-11 0)
(0.111192 -1.42649e-11 0)
(0.111192 -1.55017e-11 0)
(0.111192 -1.685e-11 0)
(0.111192 -1.83159e-11 0)
(0.111192 -1.99035e-11 0)
(0.111192 -2.16177e-11 0)
(0.111192 -2.34585e-11 0)
(0.111192 -2.54223e-11 0)
(0.111192 -2.7499e-11 0)
(0.111192 -2.96662e-11 0)
(0.111192 -3.18876e-11 0)
(0.111192 -3.40985e-11 0)
(0.111192 -3.61965e-11 0)
(0.111192 -3.80203e-11 0)
(0.111192 -3.93192e-11 0)
(0.111192 -3.97107e-11 0)
(0.111192 -3.8612e-11 0)
(0.111192 -3.51441e-11 0)
(0.111192 -2.79789e-11 0)
(0.111192 -1.50881e-11 0)
(0.111192 6.79185e-12 0)
(0.111192 4.31256e-11 0)
(0.111192 1.00342e-10 0)
(0.111192 1.86855e-10 0)
(0.111192 3.11102e-10 0)
(0.111192 4.73887e-10 0)
(0.111192 6.46654e-10 0)
(0.111192 7.37907e-10 0)
(0.111192 6.2262e-10 0)
(0.182798 6.7076e-10 0)
(0.182798 -1.09748e-10 0)
(0.182798 -7.07673e-10 0)
(0.182798 -9.97099e-10 0)
(0.182798 -1.07468e-09 0)
(0.182798 -1.05643e-09 0)
(0.182798 -9.95409e-10 0)
(0.182798 -9.15244e-10 0)
(0.182798 -8.29341e-10 0)
(0.182798 -7.44324e-10 0)
(0.182798 -6.63335e-10 0)
(0.182798 -5.87807e-10 0)
(0.182798 -5.18289e-10 0)
(0.182798 -4.54834e-10 0)
(0.182798 -3.97215e-10 0)
(0.182798 -3.45059e-10 0)
(0.182798 -2.97922e-10 0)
(0.182798 -2.55347e-10 0)
(0.182798 -2.16893e-10 0)
(0.182798 -1.82149e-10 0)
(0.182798 -1.50742e-10 0)
(0.182798 -1.22341e-10 0)
(0.182798 -9.66482e-11 0)
(0.182798 -7.34001e-11 0)
(0.182798 -5.23623e-11 0)
(0.182798 -3.33253e-11 0)
(0.182798 -1.61009e-11 0)
(0.182798 -5.18396e-13 0)
(0.182798 1.35629e-11 0)
(0.182798 2.62801e-11 0)
(0.182798 3.77632e-11 0)
(0.182798 4.8122e-11 0)
(0.182798 5.74545e-11 0)
(0.182798 6.58498e-11 0)
(0.182798 7.33882e-11 0)
(0.182798 8.01427e-11 0)
(0.182798 8.61791e-11 0)
(0.182798 9.15568e-11 0)
(0.182798 9.63295e-11 0)
(0.182798 1.00546e-10 0)
(0.182798 1.04249e-10 0)
(0.182798 1.07481e-10 0)
(0.182798 1.10276e-10 0)
(0.182798 1.12667e-10 0)
(0.182798 1.14685e-10 0)
(0.182798 1.16358e-10 0)
(0.182798 1.17709e-10 0)
(0.182798 1.18763e-10 0)
(0.182798 1.1954e-10 0)
(0.182798 1.2006e-10 0)
(0.182798 1.2034e-10 0)
(0.182798 1.20397e-10 0)
(0.182798 1.20246e-10 0)
(0.182798 1.19902e-10 0)
(0.182798 1.19378e-10 0)
(0.182798 1.18686e-10 0)
(0.182798 1.17837e-10 0)
(0.182798 1.16843e-10 0)
(0.182798 1.15713e-10 0)
(0.182798 1.14457e-10 0)
(0.182798 1.13084e-10 0)
(0.182798 1.11602e-10 0)
(0.182798 1.1002e-10 0)
(0.182798 1.08346e-10 0)
(0.182798 1.06585e-10 0)
(0.182798 1.04747e-10 0)
(0.182798 1.02836e-10 0)
(0.182798 1.00861e-10 0)
(0.182798 9.88256e-11 0)
(0.182798 9.67371e-11 0)
(0.182798 9.46009e-11 0)
(0.182798 9.24228e-11 0)
(0.182798 9.02078e-11 0)
(0.182798 8.7961e-11 0)
(0.182798 8.56874e-11 0)
(0.182798 8.33917e-11 0)
(0.182798 8.10786e-11 0)
(0.182798 7.87526e-11 0)
(0.182798 7.64179e-11 0)
(0.182798 7.40787e-11 0)
(0.182798 7.17391e-11 0)
(0.182798 6.94029e-11 0)
(0.182798 6.70741e-11 0)
(0.182798 6.47564e-11 0)
(0.182798 6.2453e-11 0)
(0.182798 6.01673e-11 0)
(0.182798 5.79028e-11 0)
(0.182798 5.56626e-11 0)
(0.182798 5.34493e-11 0)
(0.182798 5.12658e-11 0)
(0.182798 4.91149e-11 0)
(0.182798 4.69993e-11 0)
(0.182798 4.49212e-11 0)
(0.182798 4.2883e-11 0)
(0.182798 4.08867e-11 0)
(0.182798 3.8934e-11 0)
(0.182798 3.70273e-11 0)
(0.182798 3.51681e-11 0)
(0.182798 3.33578e-11 0)
(0.182798 3.15979e-11 0)
(0.182798 2.98894e-11 0)
(0.182798 2.82339e-11 0)
(0.182798 2.66322e-11 0)
(0.182798 2.50852e-11 0)
(0.182798 2.35934e-11 0)
(0.182798 2.21572e-11 0)
(0.182798 2.07769e-11 0)
(0.182798 1.94536e-11 0)
(0.182798 1.81871e-11 0)
(0.182798 1.69768e-11 0)
(0.182798 1.58231e-11 0)
(0.182798 1.47255e-11 0)
(0.182798 1.3684e-11 0)
(0.182798 1.26981e-11 0)
(0.182798 1.17669e-11 0)
(0.182798 1.089e-11 0)
(0.182798 1.00663e-11 0)
(0.182798 9.29513e-12 0)
(0.182798 8.57564e-12 0)
(0.182798 7.90656e-12 0)
(0.182798 7.28658e-12 0)
(0.182798 6.71446e-12 0)
(0.182798 6.18954e-12 0)
(0.182798 5.71005e-12 0)
(0.182798 5.274e-12 0)
(0.182798 4.88036e-12 0)
(0.182798 4.52773e-12 0)
(0.182798 4.21449e-12 0)
(0.182798 3.93868e-12 0)
(0.182798 3.69878e-12 0)
(0.182798 3.49341e-12 0)
(0.182798 3.32052e-12 0)
(0.182798 3.17858e-12 0)
(0.182798 3.0659e-12 0)
(0.182798 2.98039e-12 0)
(0.182798 2.92059e-12 0)
(0.182798 2.88469e-12 0)
(0.182798 2.87142e-12 0)
(0.182798 2.87876e-12 0)
(0.182798 2.90461e-12 0)
(0.182798 2.94787e-12 0)
(0.182798 3.00675e-12 0)
(0.182798 3.08014e-12 0)
(0.182798 3.16597e-12 0)
(0.182798 3.2624e-12 0)
(0.182798 3.36843e-12 0)
(0.182798 3.48245e-12 0)
(0.182798 3.60361e-12 0)
(0.182798 3.73036e-12 0)
(0.182798 3.86093e-12 0)
(0.182798 3.99432e-12 0)
(0.182798 4.12969e-12 0)
(0.182798 4.26603e-12 0)
(0.182798 4.40163e-12 0)
(0.182798 4.53574e-12 0)
(0.182798 4.66802e-12 0)
(0.182798 4.7972e-12 0)
(0.182798 4.92224e-12 0)
(0.182798 5.04311e-12 0)
(0.182798 5.15842e-12 0)
(0.182798 5.26754e-12 0)
(0.182798 5.37029e-12 0)
(0.182798 5.46632e-12 0)
(0.182798 5.55441e-12 0)
(0.182798 5.63452e-12 0)
(0.182798 5.70695e-12 0)
(0.182798 5.77032e-12 0)
(0.182798 5.82522e-12 0)
(0.182798 5.8714e-12 0)
(0.182798 5.90825e-12 0)
(0.182798 5.93564e-12 0)
(0.182798 5.95355e-12 0)
(0.182798 5.96269e-12 0)
(0.182798 5.96242e-12 0)
(0.182798 5.95264e-12 0)
(0.182798 5.9339e-12 0)
(0.182798 5.90565e-12 0)
(0.182798 5.86869e-12 0)
(0.182798 5.82329e-12 0)
(0.182798 5.76874e-12 0)
(0.182798 5.70597e-12 0)
(0.182798 5.63508e-12 0)
(0.182798 5.55619e-12 0)
(0.182798 5.46987e-12 0)
(0.182798 5.37614e-12 0)
(0.182798 5.27519e-12 0)
(0.182798 5.16723e-12 0)
(0.182798 5.05335e-12 0)
(0.182798 4.93296e-12 0)
(0.182798 4.80648e-12 0)
(0.182798 4.67515e-12 0)
(0.182798 4.53811e-12 0)
(0.182798 4.39644e-12 0)
(0.182798 4.25047e-12 0)
(0.182798 4.10001e-12 0)
(0.182798 3.94549e-12 0)
(0.182798 3.7872e-12 0)
(0.182798 3.62617e-12 0)
(0.182798 3.46214e-12 0)
(0.182798 3.29485e-12 0)
(0.182798 3.12563e-12 0)
(0.182798 2.95422e-12 0)
(0.182798 2.78063e-12 0)
(0.182798 2.60572e-12 0)
(0.182798 2.42963e-12 0)
(0.182798 2.25241e-12 0)
(0.182798 2.07412e-12 0)
(0.182798 1.89542e-12 0)
(0.182798 1.71595e-12 0)
(0.182798 1.5363e-12 0)
(0.182798 1.35677e-12 0)
(0.182798 1.17691e-12 0)
(0.182798 9.97926e-13 0)
(0.182798 8.18793e-13 0)
(0.182798 6.40337e-13 0)
(0.182798 4.63248e-13 0)
(0.182798 2.86155e-13 0)
(0.182798 1.10216e-13 0)
(0.182798 -6.4722e-14 0)
(0.182798 -2.38795e-13 0)
(0.182798 -4.10905e-13 0)
(0.182798 -5.82091e-13 0)
(0.182798 -7.52232e-13 0)
(0.182798 -9.21098e-13 0)
(0.182798 -1.08857e-12 0)
(0.182798 -1.25385e-12 0)
(0.182798 -1.41818e-12 0)
(0.182798 -1.58113e-12 0)
(0.182798 -1.74247e-12 0)
(0.182798 -1.90217e-12 0)
(0.182798 -2.06e-12 0)
(0.182798 -2.21668e-12 0)
(0.182798 -2.37171e-12 0)
(0.182798 -2.5254e-12 0)
(0.182798 -2.67773e-12 0)
(0.182798 -2.82833e-12 0)
(0.182798 -2.97783e-12 0)
(0.182798 -3.12593e-12 0)
(0.182798 -3.2732e-12 0)
(0.182798 -3.41904e-12 0)
(0.182798 -3.56332e-12 0)
(0.182798 -3.70776e-12 0)
(0.182798 -3.8511e-12 0)
(0.182798 -3.99428e-12 0)
(0.182798 -4.13739e-12 0)
(0.182798 -4.27946e-12 0)
(0.182798 -4.42273e-12 0)
(0.182798 -4.56642e-12 0)
(0.182798 -4.71114e-12 0)
(0.182798 -4.85767e-12 0)
(0.182798 -5.00502e-12 0)
(0.182798 -5.15563e-12 0)
(0.182798 -5.30948e-12 0)
(0.182798 -5.46667e-12 0)
(0.182798 -5.62876e-12 0)
(0.182798 -5.79591e-12 0)
(0.182798 -5.96988e-12 0)
(0.182798 -6.15163e-12 0)
(0.182798 -6.34184e-12 0)
(0.182798 -6.54226e-12 0)
(0.182798 -6.75406e-12 0)
(0.182798 -6.9794e-12 0)
(0.182798 -7.22033e-12 0)
(0.182798 -7.47875e-12 0)
(0.182798 -7.75664e-12 0)
(0.182798 -8.05654e-12 0)
(0.182798 -8.38211e-12 0)
(0.182798 -8.73535e-12 0)
(0.182798 -9.12084e-12 0)
(0.182798 -9.54188e-12 0)
(0.182798 -1.00015e-11 0)
(0.182798 -1.05061e-11 0)
(0.182798 -1.10597e-11 0)
(0.182798 -1.16681e-11 0)
(0.182798 -1.2337e-11 0)
(0.182798 -1.30717e-11 0)
(0.182798 -1.38815e-11 0)
(0.182798 -1.47729e-11 0)
(0.182798 -1.57533e-11 0)
(0.182798 -1.68328e-11 0)
(0.182798 -1.802e-11 0)
(0.182798 -1.93258e-11 0)
(0.182798 -2.07609e-11 0)
(0.182798 -2.23365e-11 0)
(0.182798 -2.40644e-11 0)
(0.182798 -2.59573e-11 0)
(0.182798 -2.80294e-11 0)
(0.182798 -3.02932e-11 0)
(0.182798 -3.27622e-11 0)
(0.182798 -3.54499e-11 0)
(0.182798 -3.83687e-11 0)
(0.182798 -4.15312e-11 0)
(0.182798 -4.4947e-11 0)
(0.182798 -4.86256e-11 0)
(0.182798 -5.25711e-11 0)
(0.182798 -5.67825e-11 0)
(0.182798 -6.12546e-11 0)
(0.182798 -6.59694e-11 0)
(0.182798 -7.08953e-11 0)
(0.182798 -7.59799e-11 0)
(0.182798 -8.11392e-11 0)
(0.182798 -8.62477e-11 0)
(0.182798 -9.11113e-11 0)
(0.182798 -9.54392e-11 0)
(0.182798 -9.8799e-11 0)
(0.182798 -1.00542e-10 0)
(0.182798 -9.9704e-11 0)
(0.182798 -9.48418e-11 0)
(0.182798 -8.38025e-11 0)
(0.182798 -6.3379e-11 0)
(0.182798 -2.88268e-11 0)
(0.182798 2.66968e-11 0)
(0.182798 1.12398e-10 0)
(0.182798 2.40845e-10 0)
(0.182798 4.26003e-10 0)
(0.182798 6.78532e-10 0)
(0.182798 9.92675e-10 0)
(0.182798 1.31046e-09 0)
(0.182798 1.47767e-09 0)
(0.182798 1.28323e-09 0)
(0.252507 1.09369e-09 0)
(0.252507 2.41133e-11 0)
(0.252507 -8.82825e-10 0)
(0.252507 -1.40278e-09 0)
(0.252507 -1.6155e-09 0)
(0.252507 -1.66195e-09 0)
(0.252507 -1.61938e-09 0)
(0.252507 -1.52796e-09 0)
(0.252507 -1.41305e-09 0)
(0.252507 -1.28916e-09 0)
(0.252507 -1.16445e-09 0)
(0.252507 -1.04346e-09 0)
(0.252507 -9.28684e-10 0)
(0.252507 -8.21346e-10 0)
(0.252507 -7.21921e-10 0)
(0.252507 -6.30417e-10 0)
(0.252507 -5.46569e-10 0)
(0.252507 -4.6996e-10 0)
(0.252507 -4.00101e-10 0)
(0.252507 -3.3648e-10 0)
(0.252507 -2.78591e-10 0)
(0.252507 -2.25951e-10 0)
(0.252507 -1.78108e-10 0)
(0.252507 -1.34646e-10 0)
(0.252507 -9.51819e-11 0)
(0.252507 -5.93664e-11 0)
(0.252507 -2.68821e-11 0)
(0.252507 2.56199e-12 0)
(0.252507 2.92417e-11 0)
(0.252507 5.33801e-11 0)
(0.252507 7.51985e-11 0)
(0.252507 9.48972e-11 0)
(0.252507 1.12656e-10 0)
(0.252507 1.28639e-10 0)
(0.252507 1.42993e-10 0)
(0.252507 1.55853e-10 0)
(0.252507 1.67342e-10 0)
(0.252507 1.7757e-10 0)
(0.252507 1.86637e-10 0)
(0.252507 1.94637e-10 0)
(0.252507 2.01651e-10 0)
(0.252507 2.07756e-10 0)
(0.252507 2.1302e-10 0)
(0.252507 2.17508e-10 0)
(0.252507 2.21276e-10 0)
(0.252507 2.24377e-10 0)
(0.252507 2.2686e-10 0)
(0.252507 2.28768e-10 0)
(0.252507 2.30143e-10 0)
(0.252507 2.31022e-10 0)
(0.252507 2.3144e-10 0)
(0.252507 2.31429e-10 0)
(0.252507 2.31018e-10 0)
(0.252507 2.30235e-10 0)
(0.252507 2.29106e-10 0)
(0.252507 2.27654e-10 0)
(0.252507 2.25903e-10 0)
(0.252507 2.23873e-10 0)
(0.252507 2.21584e-10 0)
(0.252507 2.19054e-10 0)
(0.252507 2.16302e-10 0)
(0.252507 2.13343e-10 0)
(0.252507 2.10194e-10 0)
(0.252507 2.0687e-10 0)
(0.252507 2.03384e-10 0)
(0.252507 1.99751e-10 0)
(0.252507 1.95983e-10 0)
(0.252507 1.92094e-10 0)
(0.252507 1.88094e-10 0)
(0.252507 1.83996e-10 0)
(0.252507 1.79811e-10 0)
(0.252507 1.7555e-10 0)
(0.252507 1.71222e-10 0)
(0.252507 1.66838e-10 0)
(0.252507 1.62407e-10 0)
(0.252507 1.57939e-10 0)
(0.252507 1.53443e-10 0)
(0.252507 1.48927e-10 0)
(0.252507 1.444e-10 0)
(0.252507 1.39869e-10 0)
(0.252507 1.35343e-10 0)
(0.252507 1.30829e-10 0)
(0.252507 1.26334e-10 0)
(0.252507 1.21865e-10 0)
(0.252507 1.1743e-10 0)
(0.252507 1.13034e-10 0)
(0.252507 1.08683e-10 0)
(0.252507 1.04385e-10 0)
(0.252507 1.00143e-10 0)
(0.252507 9.59631e-11 0)
(0.252507 9.18506e-11 0)
(0.252507 8.78105e-11 0)
(0.252507 8.3847e-11 0)
(0.252507 7.99643e-11 0)
(0.252507 7.61662e-11 0)
(0.252507 7.24561e-11 0)
(0.252507 6.8838e-11 0)
(0.252507 6.53145e-11 0)
(0.252507 6.18885e-11 0)
(0.252507 5.85624e-11 0)
(0.252507 5.53383e-11 0)
(0.252507 5.22184e-11 0)
(0.252507 4.92041e-11 0)
(0.252507 4.62973e-11 0)
(0.252507 4.34987e-11 0)
(0.252507 4.08087e-11 0)
(0.252507 3.8228e-11 0)
(0.252507 3.57577e-11 0)
(0.252507 3.33973e-11 0)
(0.252507 3.11464e-11 0)
(0.252507 2.90047e-11 0)
(0.252507 2.69712e-11 0)
(0.252507 2.50457e-11 0)
(0.252507 2.32269e-11 0)
(0.252507 2.1513e-11 0)
(0.252507 1.99028e-11 0)
(0.252507 1.83945e-11 0)
(0.252507 1.69865e-11 0)
(0.252507 1.56764e-11 0)
(0.252507 1.44619e-11 0)
(0.252507 1.33407e-11 0)
(0.252507 1.231e-11 0)
(0.252507 1.1368e-11 0)
(0.252507 1.05114e-11 0)
(0.252507 9.73672e-12 0)
(0.252507 9.04142e-12 0)
(0.252507 8.42261e-12 0)
(0.252507 7.8773e-12 0)
(0.252507 7.40182e-12 0)
(0.252507 6.99289e-12 0)
(0.252507 6.64754e-12 0)
(0.252507 6.36234e-12 0)
(0.252507 6.13399e-12 0)
(0.252507 5.95883e-12 0)
(0.252507 5.83372e-12 0)
(0.252507 5.75548e-12 0)
(0.252507 5.72061e-12 0)
(0.252507 5.72618e-12 0)
(0.252507 5.76865e-12 0)
(0.252507 5.84446e-12 0)
(0.252507 5.95102e-12 0)
(0.252507 6.08508e-12 0)
(0.252507 6.24408e-12 0)
(0.252507 6.42476e-12 0)
(0.252507 6.62367e-12 0)
(0.252507 6.83854e-12 0)
(0.252507 7.06679e-12 0)
(0.252507 7.30617e-12 0)
(0.252507 7.55401e-12 0)
(0.252507 7.80758e-12 0)
(0.252507 8.06452e-12 0)
(0.252507 8.32332e-12 0)
(0.252507 8.582e-12 0)
(0.252507 8.83808e-12 0)
(0.252507 9.08989e-12 0)
(0.252507 9.33613e-12 0)
(0.252507 9.5749e-12 0)
(0.252507 9.80496e-12 0)
(0.252507 1.00254e-11 0)
(0.252507 1.02343e-11 0)
(0.252507 1.04303e-11 0)
(0.252507 1.06132e-11 0)
(0.252507 1.07819e-11 0)
(0.252507 1.09352e-11 0)
(0.252507 1.1073e-11 0)
(0.252507 1.11945e-11 0)
(0.252507 1.12986e-11 0)
(0.252507 1.13863e-11 0)
(0.252507 1.14563e-11 0)
(0.252507 1.15082e-11 0)
(0.252507 1.15424e-11 0)
(0.252507 1.15584e-11 0)
(0.252507 1.15568e-11 0)
(0.252507 1.15374e-11 0)
(0.252507 1.15002e-11 0)
(0.252507 1.14458e-11 0)
(0.252507 1.13736e-11 0)
(0.252507 1.12847e-11 0)
(0.252507 1.11794e-11 0)
(0.252507 1.10579e-11 0)
(0.252507 1.09207e-11 0)
(0.252507 1.0768e-11 0)