/*--------------------------------*- C++ -*----------------------------------*\
| =========                 |                                                 |
| \\      /  F ield         | OpenFOAM: The Open Source CFD Toolbox           |
|  \\    /   O peration     | Version:  2112                                  |
|   \\  /    A nd           | Website:  www.openfoam.com                      |
|    \\/     M anipulation  |                                                 |
\*---------------------------------------------------------------------------*/
FoamFile
{
    version     2.0;
    format      ascii;
    arch        "LSB;label=32;scalar=64";
    class       volScalarField;
    location    "5.94";
    object      p;
}
// * * * * * * * * * * * * * * * * * * * * * * * * * * * * * * * * * * * * * //

dimensions      [0 2 -2 0 0 0 0];

internalField   nonuniform List<scalar> 
25600
(
1.24944e-14
5.82378e-10
1.03713e-09
1.32551e-09
1.50995e-09
1.62144e-09
1.66686e-09
1.66358e-09
1.62953e-09
1.58015e-09
1.52894e-09
1.48687e-09
1.46146e-09
1.45667e-09
1.47323e-09
1.50946e-09
1.5622e-09
1.62754e-09
1.70144e-09
1.78011e-09
1.86017e-09
1.93875e-09
2.01349e-09
2.08243e-09
2.14405e-09
2.19713e-09
2.24075e-09
2.27411e-09
2.29679e-09
2.30859e-09
2.30927e-09
2.29881e-09
2.27731e-09
2.24499e-09
2.20215e-09
2.14917e-09
2.08648e-09
2.01459e-09
1.93402e-09
1.84534e-09
1.74914e-09
1.64601e-09
1.53656e-09
1.42139e-09
1.30109e-09
1.17624e-09
1.04742e-09
9.15155e-10
7.79987e-10
6.42415e-10
5.02916e-10
3.61943e-10
2.19925e-10
7.72641e-11
-6.56631e-11
-2.08504e-10
-3.50931e-10
-4.92639e-10
-6.33347e-10
-7.72795e-10
-9.10744e-10
-1.04697e-09
-1.18129e-09
-1.3135e-09
-1.44345e-09
-1.57099e-09
-1.69598e-09
-1.81831e-09
-1.93786e-09
-2.05456e-09
-2.16832e-09
-2.27908e-09
-2.38677e-09
-2.49135e-09
-2.59278e-09
-2.69105e-09
-2.78612e-09
-2.87798e-09
-2.96664e-09
-3.0521e-09
-3.13438e-09
-3.21347e-09
-3.28942e-09
-3.36225e-09
-3.43199e-09
-3.49869e-09
-3.56239e-09
-3.62313e-09
-3.68097e-09
-3.73596e-09
-3.78816e-09
-3.83764e-09
-3.88445e-09
-3.92867e-09
-3.97037e-09
-4.00961e-09
-4.04648e-09
-4.08103e-09
-4.11336e-09
-4.14353e-09
-4.17163e-09
-4.19773e-09
-4.22191e-09
-4.24425e-09
-4.26483e-09
-4.28373e-09
-4.30102e-09
-4.31678e-09
-4.33109e-09
-4.34403e-09
-4.35567e-09
-4.36609e-09
-4.37535e-09
-4.38353e-09
-4.39069e-09
-4.39692e-09
-4.40226e-09
-4.40679e-09
-4.41056e-09
-4.41364e-09
-4.41609e-09
-4.41796e-09
-4.4193e-09
-4.42018e-09
-4.42062e-09
-4.42069e-09
-4.42042e-09
-4.41987e-09
-4.41906e-09
-4.41804e-09
-4.41683e-09
-4.41548e-09
-4.41402e-09
-4.41246e-09
-4.41084e-09
-4.40917e-09
-4.40749e-09
-4.40581e-09
-4.40414e-09
-4.40251e-09
-4.40092e-09
-4.39938e-09
-4.39791e-09
-4.39651e-09
-4.39518e-09
-4.39394e-09
-4.39278e-09
-4.3917e-09
-4.39071e-09
-4.3898e-09
-4.38897e-09
-4.38822e-09
-4.38753e-09
-4.38691e-09
-4.38635e-09
-4.38584e-09
-4.38537e-09
-4.38494e-09
-4.38453e-09
-4.38413e-09
-4.38374e-09
-4.38334e-09
-4.38292e-09
-4.38247e-09
-4.38198e-09
-4.38144e-09
-4.38084e-09
-4.38016e-09
-4.37939e-09
-4.37853e-09
-4.37756e-09
-4.37647e-09
-4.37526e-09
-4.3739e-09
-4.37239e-09
-4.37073e-09
-4.36889e-09
-4.36688e-09
-4.36469e-09
-4.3623e-09
-4.35971e-09
-4.35692e-09
-4.35391e-09
-4.35069e-09
-4.34724e-09
-4.34355e-09
-4.33964e-09
-4.33549e-09
-4.3311e-09
-4.32646e-09
-4.32158e-09
-4.31645e-09
-4.31107e-09
-4.30544e-09
-4.29956e-09
-4.29342e-09
-4.28704e-09
-4.28041e-09
-4.27353e-09
-4.26641e-09
-4.25904e-09
-4.25143e-09
-4.24358e-09
-4.2355e-09
-4.22718e-09
-4.21863e-09
-4.20986e-09
-4.20087e-09
-4.19167e-09
-4.18225e-09
-4.17262e-09
-4.1628e-09
-4.15278e-09
-4.14256e-09
-4.13217e-09
-4.12159e-09
-4.11084e-09
-4.09992e-09
-4.08884e-09
-4.0776e-09
-4.06621e-09
-4.05467e-09
-4.04299e-09
-4.03117e-09
-4.01923e-09
-4.00716e-09
-3.99496e-09
-3.98265e-09
-3.97022e-09
-3.95769e-09
-3.94504e-09
-3.93229e-09
-3.91943e-09
-3.90647e-09
-3.8934e-09
-3.88022e-09
-3.86694e-09
-3.85354e-09
-3.84003e-09
-3.8264e-09
-3.81263e-09
-3.79872e-09
-3.78465e-09
-3.77042e-09
-3.756e-09
-3.74137e-09
-3.72652e-09
-3.71141e-09
-3.69602e-09
-3.68031e-09
-3.66424e-09
-3.64777e-09
-3.63085e-09
-3.61343e-09
-3.59544e-09
-3.57681e-09
-3.55747e-09
-3.53733e-09
-3.51631e-09
-3.49428e-09
-3.47115e-09
-3.44678e-09
-3.42103e-09
-3.39376e-09
-3.36479e-09
-3.33395e-09
-3.30104e-09
-3.26585e-09
-3.22814e-09
-3.18767e-09
-3.14417e-09
-3.09736e-09
-3.04694e-09
-2.99257e-09
-2.93394e-09
-2.87068e-09
-2.80242e-09
-2.72879e-09
-2.64938e-09
-2.56381e-09
-2.47167e-09
-2.37257e-09
-2.26611e-09
-2.15194e-09
-2.0297e-09
-1.89908e-09
-1.75981e-09
-1.61169e-09
-1.45456e-09
-1.28839e-09
-1.1132e-09
-9.29186e-10
-7.36651e-10
-5.3609e-10
-3.28203e-10
-1.13936e-10
1.0547e-10
3.28422e-10
5.52915e-10
7.7646e-10
9.96013e-10
1.20792e-09
1.40785e-09
1.59081e-09
1.7512e-09
1.88289e-09
1.97949e-09
2.03454e-09
2.04187e-09
1.99586e-09
1.8914e-09
1.72445e-09
1.49662e-09
1.20508e-09
8.55118e-10
4.60696e-10
4.30075e-11
-3.45186e-10
-5.73273e-10
-4.64655e-10
6.96813e-11
4.21091e-10
7.2141e-10
9.48258e-10
1.13647e-09
1.27363e-09
1.34873e-09
1.37512e-09
1.37027e-09
1.34905e-09
1.32478e-09
1.3084e-09
1.3074e-09
1.32554e-09
1.36336e-09
1.41905e-09
1.48934e-09
1.57035e-09
1.6581e-09
1.74894e-09
1.83963e-09
1.92747e-09
2.01023e-09
2.08612e-09
2.15373e-09
2.21194e-09
2.25995e-09
2.29727e-09
2.32319e-09
2.33764e-09
2.34055e-09
2.33196e-09
2.31199e-09
2.28091e-09
2.23905e-09
2.18683e-09
2.12471e-09
2.05321e-09
1.97289e-09
1.88433e-09
1.78814e-09
1.68494e-09
1.57532e-09
1.45992e-09
1.33933e-09
1.21414e-09
1.08493e-09
9.52247e-10
8.16622e-10
6.78563e-10
5.38552e-10
3.97046e-10
2.54475e-10
1.11244e-10
-3.22683e-11
-1.75708e-10
-3.18745e-10
-4.61074e-10
-6.02411e-10
-7.42497e-10
-8.81092e-10
-1.01797e-09
-1.15294e-09
-1.28582e-09
-1.41644e-09
-1.54464e-09
-1.6703e-09
-1.7933e-09
-1.91354e-09
-2.03091e-09
-2.14534e-09
-2.25677e-09
-2.36513e-09
-2.47038e-09
-2.57248e-09
-2.6714e-09
-2.76713e-09
-2.85965e-09
-2.94896e-09
-3.03506e-09
-3.11796e-09
-3.19768e-09
-3.27424e-09
-3.34768e-09
-3.41802e-09
-3.48531e-09
-3.54958e-09
-3.61088e-09
-3.66928e-09
-3.72481e-09
-3.77754e-09
-3.82754e-09
-3.87486e-09
-3.91957e-09
-3.96174e-09
-4.00145e-09
-4.03876e-09
-4.07375e-09
-4.10649e-09
-4.13707e-09
-4.16555e-09
-4.19203e-09
-4.21657e-09
-4.23925e-09
-4.26016e-09
-4.27937e-09
-4.29696e-09
-4.31301e-09
-4.32759e-09
-4.34078e-09
-4.35266e-09
-4.3633e-09
-4.37278e-09
-4.38115e-09
-4.3885e-09
-4.3949e-09
-4.4004e-09
-4.40507e-09
-4.40898e-09
-4.41218e-09
-4.41474e-09
-4.41671e-09
-4.41814e-09
-4.41909e-09
-4.41961e-09
-4.41974e-09
-4.41953e-09
-4.41901e-09
-4.41824e-09
-4.41724e-09
-4.41606e-09
-4.41472e-09
-4.41326e-09
-4.41171e-09
-4.41009e-09
-4.40842e-09
-4.40672e-09
-4.40502e-09
-4.40334e-09
-4.40168e-09
-4.40006e-09
-4.3985e-09
-4.397e-09
-4.39557e-09
-4.39421e-09
-4.39293e-09
-4.39174e-09
-4.39063e-09
-4.3896e-09
-4.38866e-09
-4.38779e-09
-4.387e-09
-4.38629e-09
-4.38564e-09
-4.38505e-09
-4.38451e-09
-4.38401e-09
-4.38355e-09
-4.38312e-09
-4.3827e-09
-4.38229e-09
-4.38187e-09
-4.38143e-09
-4.38097e-09
-4.38047e-09
-4.37992e-09
-4.37931e-09
-4.37863e-09
-4.37787e-09
-4.37701e-09
-4.37604e-09
-4.37496e-09
-4.37375e-09
-4.3724e-09
-4.37091e-09
-4.36926e-09
-4.36744e-09
-4.36545e-09
-4.36327e-09
-4.36091e-09
-4.35835e-09
-4.35558e-09
-4.3526e-09
-4.3494e-09
-4.34598e-09
-4.34234e-09
-4.33846e-09
-4.33434e-09
-4.32998e-09
-4.32538e-09
-4.32054e-09
-4.31545e-09
-4.31011e-09
-4.30452e-09
-4.29868e-09
-4.29259e-09
-4.28626e-09
-4.27967e-09
-4.27284e-09
-4.26576e-09
-4.25843e-09
-4.25087e-09
-4.24306e-09
-4.23502e-09
-4.22675e-09
-4.21825e-09
-4.20953e-09
-4.20058e-09
-4.19142e-09
-4.18205e-09
-4.17247e-09
-4.16269e-09
-4.15272e-09
-4.14255e-09
-4.1322e-09
-4.12166e-09
-4.11096e-09
-4.10008e-09
-4.08905e-09
-4.07785e-09
-4.06651e-09
-4.05501e-09
-4.04338e-09
-4.03161e-09
-4.01971e-09
-4.00768e-09
-3.99553e-09
-3.98327e-09
-3.97089e-09
-3.9584e-09
-3.9458e-09
-3.93309e-09
-3.92028e-09
-3.90737e-09
-3.89435e-09
-3.88123e-09
-3.868e-09
-3.85466e-09
-3.84121e-09
-3.82763e-09
-3.81392e-09
-3.80008e-09
-3.78608e-09
-3.77191e-09
-3.75757e-09
-3.74302e-09
-3.72825e-09
-3.71323e-09
-3.69794e-09
-3.68233e-09
-3.66637e-09
-3.65001e-09
-3.63322e-09
-3.61593e-09
-3.59808e-09
-3.57961e-09
-3.56043e-09
-3.54048e-09
-3.51965e-09
-3.49784e-09
-3.47494e-09
-3.45082e-09
-3.42535e-09
-3.39837e-09
-3.36973e-09
-3.33924e-09
-3.30671e-09
-3.27193e-09
-3.23467e-09
-3.19468e-09
-3.15171e-09
-3.10546e-09
-3.05564e-09
-3.00194e-09
-2.944e-09
-2.88149e-09
-2.81404e-09
-2.74125e-09
-2.66275e-09
-2.57814e-09
-2.48701e-09
-2.38898e-09
-2.28364e-09
-2.17064e-09
-2.04961e-09
-1.92024e-09
-1.78227e-09
-1.63546e-09
-1.47967e-09
-1.31484e-09
-1.14099e-09
-9.58272e-10
-7.66984e-10
-5.67583e-10
-3.60729e-10
-1.47321e-10
7.14591e-11
2.9409e-10
5.18647e-10
7.42732e-10
9.63405e-10
1.17711e-09
1.37964e-09
1.56611e-09
1.73105e-09
1.8685e-09
1.97227e-09
2.03631e-09
2.05515e-09
2.02437e-09
1.94121e-09
1.80465e-09
1.61268e-09
1.37018e-09
1.08523e-09
7.72814e-10
4.47521e-10
1.24191e-10
-1.2442e-10
-1.59924e-10
1.13791e-10
3.0716e-10
4.81909e-10
6.36786e-10
8.07834e-10
9.57961e-10
1.0534e-09
1.10296e-09
1.12386e-09
1.12956e-09
1.13235e-09
1.14255e-09
1.16715e-09
1.20949e-09
1.26979e-09
1.346e-09
1.43475e-09
1.53215e-09
1.63432e-09
1.7377e-09
1.83923e-09
1.93636e-09
2.02704e-09
2.10962e-09
2.18284e-09
2.24572e-09
2.29756e-09
2.3378e-09
2.36636e-09
2.38283e-09
2.38726e-09
2.37976e-09
2.36056e-09
2.32995e-09
2.28831e-09
2.23609e-09
2.17381e-09
2.102e-09
2.02125e-09
1.93216e-09
1.83537e-09
1.73149e-09
1.62115e-09
1.50498e-09
1.3836e-09
1.25759e-09
1.12754e-09
9.94003e-10
8.57519e-10
7.18596e-10
5.77717e-10
4.35343e-10
2.91904e-10
1.47806e-10
3.4311e-12
-1.40868e-10
-2.8476e-10
-4.2794e-10
-5.70124e-10
-7.11052e-10
-8.50482e-10
-9.88194e-10
-1.12399e-09
-1.25768e-09
-1.38911e-09
-1.51812e-09
-1.64458e-09
-1.76838e-09
-1.8894e-09
-2.00755e-09
-2.12275e-09
-2.23494e-09
-2.34405e-09
-2.45004e-09
-2.55288e-09
-2.65253e-09
-2.74897e-09
-2.84219e-09
-2.93219e-09
-3.01897e-09
-3.10254e-09
-3.18292e-09
-3.26012e-09
-3.33419e-09
-3.40515e-09
-3.47304e-09
-3.53789e-09
-3.59977e-09
-3.65872e-09
-3.7148e-09
-3.76806e-09
-3.81857e-09
-3.86638e-09
-3.91157e-09
-3.9542e-09
-3.99436e-09
-4.0321e-09
-4.0675e-09
-4.10064e-09
-4.1316e-09
-4.16044e-09
-4.18726e-09
-4.21213e-09
-4.23513e-09
-4.25633e-09
-4.27582e-09
-4.29368e-09
-4.30997e-09
-4.32479e-09
-4.3382e-09
-4.35029e-09
-4.36112e-09
-4.37076e-09
-4.3793e-09
-4.3868e-09
-4.39333e-09
-4.39895e-09
-4.40374e-09
-4.40774e-09
-4.41104e-09
-4.41367e-09
-4.41571e-09
-4.4172e-09
-4.4182e-09
-4.41875e-09
-4.41891e-09
-4.41872e-09
-4.41823e-09
-4.41746e-09
-4.41647e-09
-4.41529e-09
-4.41394e-09
-4.41247e-09
-4.4109e-09
-4.40925e-09
-4.40756e-09
-4.40584e-09
-4.40411e-09
-4.40239e-09
-4.4007e-09
-4.39905e-09
-4.39745e-09
-4.39591e-09
-4.39444e-09
-4.39305e-09
-4.39173e-09
-4.3905e-09
-4.38935e-09
-4.38829e-09
-4.38731e-09
-4.38641e-09
-4.38559e-09
-4.38485e-09
-4.38417e-09
-4.38355e-09
-4.38299e-09
-4.38247e-09
-4.38199e-09
-4.38154e-09
-4.3811e-09
-4.38068e-09
-4.38025e-09
-4.37981e-09
-4.37934e-09
-4.37884e-09
-4.37829e-09
-4.37769e-09
-4.37701e-09
-4.37625e-09
-4.3754e-09
-4.37445e-09
-4.37338e-09
-4.37219e-09
-4.37086e-09
-4.36939e-09
-4.36776e-09
-4.36597e-09
-4.36401e-09
-4.36186e-09
-4.35953e-09
-4.357e-09
-4.35427e-09
-4.35132e-09
-4.34816e-09
-4.34478e-09
-4.34117e-09
-4.33733e-09
-4.33326e-09
-4.32895e-09
-4.32439e-09
-4.31959e-09
-4.31454e-09
-4.30925e-09
-4.30371e-09
-4.29792e-09
-4.29187e-09
-4.28558e-09
-4.27904e-09
-4.27226e-09
-4.26522e-09
-4.25795e-09
-4.25043e-09
-4.24267e-09
-4.23468e-09
-4.22646e-09
-4.21801e-09
-4.20933e-09
-4.20043e-09
-4.19132e-09
-4.18199e-09
-4.17246e-09
-4.16272e-09
-4.15279e-09
-4.14267e-09
-4.13237e-09
-4.12188e-09
-4.11122e-09
-4.10039e-09
-4.0894e-09
-4.07825e-09
-4.06694e-09
-4.0555e-09
-4.04391e-09
-4.03218e-09
-4.02033e-09
-4.00834e-09
-3.99624e-09
-3.98402e-09
-3.97169e-09
-3.95924e-09
-3.94669e-09
-3.93404e-09
-3.92128e-09
-3.90842e-09
-3.89545e-09
-3.88239e-09
-3.86921e-09
-3.85593e-09
-3.84254e-09
-3.82903e-09
-3.81539e-09
-3.80162e-09
-3.7877e-09
-3.77362e-09
-3.75936e-09
-3.74491e-09
-3.73024e-09
-3.71533e-09
-3.70015e-09
-3.68467e-09
-3.66884e-09
-3.65264e-09
-3.63601e-09
-3.61889e-09
-3.60124e-09
-3.58297e-09
-3.56403e-09
-3.54432e-09
-3.52376e-09
-3.50225e-09
-3.47967e-09
-3.45591e-09
-3.43082e-09
-3.40426e-09
-3.37608e-09
-3.34609e-09
-3.3141e-09
-3.27991e-09
-3.24329e-09
-3.204e-09
-3.16178e-09
-3.11635e-09
-3.06741e-09
-3.01466e-09
-2.95775e-09
-2.89634e-09
-2.83006e-09
-2.75854e-09
-2.68139e-09
-2.5982e-09
-2.5086e-09
-2.41217e-09
-2.30852e-09
-2.19729e-09
-2.07811e-09
-1.95067e-09
-1.81468e-09
-1.66991e-09
-1.5162e-09
-1.35346e-09
-1.18169e-09
-1.00103e-09
-8.11717e-10
-6.1417e-10
-4.0899e-10
-1.97003e-10
2.06979e-11
2.42696e-10
4.67193e-10
6.91933e-10
9.14137e-10
1.13043e-09
1.33678e-09
1.52852e-09
1.70037e-09
1.84659e-09
1.96129e-09
2.03876e-09
2.074e-09
2.06327e-09
2.00452e-09
1.89776e-09
1.74475e-09
1.54939e-09
1.31984e-09
1.06999e-09
8.04956e-10
5.10545e-10
2.1441e-10
4.92152e-11
1.33413e-10
2.35153e-10
3.22181e-10
4.0781e-10
5.53137e-10
7.07954e-10
8.15975e-10
8.81494e-10
9.2242e-10
9.50832e-10
9.77637e-10
1.01219e-09
1.06076e-09
1.1261e-09
1.20795e-09
1.30393e-09
1.4105e-09
1.52368e-09
1.63961e-09
1.75483e-09
1.8664e-09
1.97193e-09
2.06954e-09
2.15775e-09
2.23545e-09
2.30182e-09
2.35628e-09
2.39845e-09
2.42817e-09
2.44532e-09
2.44999e-09
2.44236e-09
2.42271e-09
2.39139e-09
2.34883e-09
2.29554e-09
2.23205e-09
2.15894e-09
2.07681e-09
1.98631e-09
1.88806e-09
1.78272e-09
1.67091e-09
1.55328e-09
1.43045e-09
1.30302e-09
1.17156e-09
1.03666e-09
8.98828e-10
7.58591e-10
6.16431e-10
4.72807e-10
3.2815e-10
1.82866e-10
3.73338e-11
-1.08093e-10
-2.53084e-10
-3.97335e-10
-5.40565e-10
-6.82513e-10
-8.22939e-10
-9.61625e-10
-1.09837e-09
-1.23299e-09
-1.36533e-09
-1.49523e-09
-1.62256e-09
-1.7472e-09
-1.86905e-09
-1.98801e-09
-2.10401e-09
-2.21697e-09
-2.32685e-09
-2.43358e-09
-2.53714e-09
-2.63749e-09
-2.73462e-09
-2.82852e-09
-2.91917e-09
-3.00659e-09
-3.09078e-09
-3.17176e-09
-3.24956e-09
-3.32419e-09
-3.3957e-09
-3.46412e-09
-3.52949e-09
-3.59187e-09
-3.6513e-09
-3.70784e-09
-3.76154e-09
-3.81247e-09
-3.8607e-09
-3.90628e-09
-3.94929e-09
-3.98979e-09
-4.02787e-09
-4.0636e-09
-4.09704e-09
-4.12829e-09
-4.15741e-09
-4.18448e-09
-4.20959e-09
-4.23281e-09
-4.25423e-09
-4.27391e-09
-4.29194e-09
-4.30841e-09
-4.32337e-09
-4.33692e-09
-4.34913e-09
-4.36007e-09
-4.36982e-09
-4.37845e-09
-4.38602e-09
-4.39262e-09
-4.3983e-09
-4.40313e-09
-4.40717e-09
-4.4105e-09
-4.41315e-09
-4.4152e-09
-4.4167e-09
-4.4177e-09
-4.41825e-09
-4.4184e-09
-4.41819e-09
-4.41767e-09
-4.41688e-09
-4.41586e-09
-4.41464e-09
-4.41326e-09
-4.41175e-09
-4.41014e-09
-4.40845e-09
-4.40672e-09
-4.40495e-09
-4.40318e-09
-4.40142e-09
-4.39968e-09
-4.39799e-09
-4.39634e-09
-4.39476e-09
-4.39325e-09
-4.39182e-09
-4.39047e-09
-4.3892e-09
-4.38802e-09
-4.38692e-09
-4.38591e-09
-4.38499e-09
-4.38414e-09
-4.38337e-09
-4.38268e-09
-4.38204e-09
-4.38146e-09
-4.38093e-09
-4.38045e-09
-4.37999e-09
-4.37955e-09
-4.37912e-09
-4.3787e-09
-4.37826e-09
-4.3778e-09
-4.37731e-09
-4.37677e-09
-4.37618e-09
-4.37552e-09
-4.37478e-09
-4.37395e-09
-4.37302e-09
-4.37198e-09
-4.37081e-09
-4.36951e-09
-4.36807e-09
-4.36648e-09
-4.36472e-09
-4.36279e-09
-4.36068e-09
-4.35839e-09
-4.3559e-09
-4.3532e-09
-4.3503e-09
-4.34718e-09
-4.34384e-09
-4.34027e-09
-4.33648e-09
-4.33245e-09
-4.32818e-09
-4.32367e-09
-4.31891e-09
-4.31391e-09
-4.30866e-09
-4.30316e-09
-4.29741e-09
-4.29142e-09
-4.28517e-09
-4.27868e-09
-4.27193e-09
-4.26494e-09
-4.25771e-09
-4.25024e-09
-4.24253e-09
-4.23458e-09
-4.22639e-09
-4.21798e-09
-4.20935e-09
-4.20049e-09
-4.19142e-09
-4.18213e-09
-4.17264e-09
-4.16294e-09
-4.15305e-09
-4.14297e-09
-4.1327e-09
-4.12225e-09
-4.11163e-09
-4.10084e-09
-4.08988e-09
-4.07877e-09
-4.0675e-09
-4.05609e-09
-4.04454e-09
-4.03285e-09
-4.02104e-09
-4.00909e-09
-3.99703e-09
-3.98485e-09
-3.97256e-09
-3.96015e-09
-3.94765e-09
-3.93503e-09
-3.92232e-09
-3.90951e-09
-3.8966e-09
-3.88358e-09
-3.87047e-09
-3.85725e-09
-3.84392e-09
-3.83048e-09
-3.81691e-09
-3.80322e-09
-3.78938e-09
-3.77539e-09
-3.76124e-09
-3.74689e-09
-3.73235e-09
-3.71757e-09
-3.70253e-09
-3.6872e-09
-3.67154e-09
-3.65553e-09
-3.63909e-09
-3.6222e-09
-3.60479e-09
-3.5868e-09
-3.56815e-09
-3.54876e-09
-3.52856e-09
-3.50743e-09
-3.48528e-09
-3.46198e-09
-3.4374e-09
-3.4114e-09
-3.38383e-09
-3.3545e-09
-3.32324e-09
-3.28984e-09
-3.25408e-09
-3.21572e-09
-3.17452e-09
-3.13019e-09
-3.08244e-09
-3.03097e-09
-2.97545e-09
-2.91553e-09
-2.85085e-09
-2.78104e-09
-2.70572e-09
-2.62449e-09
-2.53694e-09
-2.4427e-09
-2.34135e-09
-2.23253e-09
-2.11587e-09
-1.99105e-09
-1.85776e-09
-1.71576e-09
-1.56487e-09
-1.40497e-09
-1.23604e-09
-1.05815e-09
-8.7151e-10
-6.76466e-10
-4.7354e-10
-2.63463e-10
-4.72109e-11
1.73939e-10
3.98349e-10
6.23957e-10
8.48193e-10
1.06792e-09
1.27935e-09
1.47806e-09
1.65902e-09
1.81674e-09
1.94552e-09
2.03988e-09
2.09505e-09
2.1075e-09
2.07544e-09
1.99882e-09
1.88046e-09
1.72271e-09
1.53197e-09
1.31981e-09
1.08523e-09
7.93484e-10
4.45054e-10
1.77104e-10
1.64234e-10
2.0486e-10
2.22414e-10
2.39032e-10
3.51651e-10
5.05941e-10
6.22056e-10
6.98899e-10
7.55948e-10
8.04113e-10
8.52765e-10
9.10132e-10
9.81627e-10
1.06928e-09
1.17227e-09
1.28777e-09
1.41196e-09
1.54072e-09
1.67017e-09
1.79688e-09
1.91805e-09
2.03144e-09
2.13531e-09
2.22839e-09
2.30972e-09
2.37865e-09
2.43475e-09
2.47779e-09
2.50767e-09
2.52445e-09
2.52829e-09
2.51946e-09
2.49831e-09
2.46526e-09
2.42079e-09
2.36546e-09
2.29984e-09
2.22454e-09
2.1402e-09
2.04747e-09
1.94701e-09
1.83949e-09
1.72554e-09
1.60581e-09
1.48094e-09
1.35152e-09
1.21815e-09
1.08138e-09
9.41758e-10
7.99789e-10
6.5596e-10
5.10727e-10
3.6452e-10
2.17743e-10
7.07724e-11
-7.60403e-11
-2.22369e-10
-3.67909e-10
-5.12383e-10
-6.55531e-10
-7.97117e-10
-9.36924e-10
-1.07475e-09
-1.21042e-09
-1.34377e-09
-1.47466e-09
-1.60294e-09
-1.7285e-09
-1.85124e-09
-1.97107e-09
-2.0879e-09
-2.20168e-09
-2.31234e-09
-2.41983e-09
-2.52413e-09
-2.62519e-09
-2.72301e-09
-2.81757e-09
-2.90887e-09
-2.99691e-09
-3.0817e-09
-3.16326e-09
-3.2416e-09
-3.31677e-09
-3.38879e-09
-3.4577e-09
-3.52354e-09
-3.58637e-09
-3.64623e-09
-3.70318e-09
-3.75727e-09
-3.80857e-09
-3.85714e-09
-3.90305e-09
-3.94637e-09
-3.98717e-09
-4.02553e-09
-4.06151e-09
-4.09519e-09
-4.12666e-09
-4.15599e-09
-4.18325e-09
-4.20853e-09
-4.23191e-09
-4.25347e-09
-4.27328e-09
-4.29143e-09
-4.30799e-09
-4.32304e-09
-4.33667e-09
-4.34894e-09
-4.35993e-09
-4.36972e-09
-4.37838e-09
-4.38598e-09
-4.39258e-09
-4.39827e-09
-4.40309e-09
-4.40713e-09
-4.41043e-09
-4.41306e-09
-4.41508e-09
-4.41655e-09
-4.41751e-09
-4.41801e-09
-4.41811e-09
-4.41785e-09
-4.41728e-09
-4.41644e-09
-4.41536e-09
-4.41408e-09
-4.41264e-09
-4.41108e-09
-4.4094e-09
-4.40766e-09
-4.40586e-09
-4.40404e-09
-4.40221e-09
-4.40039e-09
-4.39861e-09
-4.39686e-09
-4.39517e-09
-4.39354e-09
-4.39198e-09
-4.39051e-09
-4.38912e-09
-4.38781e-09
-4.3866e-09
-4.38547e-09
-4.38444e-09
-4.38349e-09
-4.38263e-09
-4.38184e-09
-4.38113e-09
-4.38048e-09
-4.3799e-09
-4.37937e-09
-4.37888e-09
-4.37842e-09
-4.37799e-09
-4.37757e-09
-4.37716e-09
-4.37673e-09
-4.37629e-09
-4.37582e-09
-4.3753e-09
-4.37473e-09
-4.3741e-09
-4.37339e-09
-4.37259e-09
-4.37169e-09
-4.37068e-09
-4.36955e-09
-4.36829e-09
-4.36689e-09
-4.36533e-09
-4.36362e-09
-4.36173e-09
-4.35966e-09
-4.35741e-09
-4.35496e-09
-4.35231e-09
-4.34946e-09
-4.34638e-09
-4.34309e-09
-4.33957e-09
-4.33582e-09
-4.33183e-09
-4.32761e-09
-4.32315e-09
-4.31844e-09
-4.31348e-09
-4.30828e-09
-4.30282e-09
-4.29712e-09
-4.29117e-09
-4.28496e-09
-4.27851e-09
-4.27181e-09
-4.26486e-09
-4.25767e-09
-4.25024e-09
-4.24257e-09
-4.23466e-09
-4.22651e-09
-4.21814e-09
-4.20954e-09
-4.20072e-09
-4.19168e-09
-4.18243e-09
-4.17298e-09
-4.16332e-09
-4.15346e-09
-4.14341e-09
-4.13318e-09
-4.12276e-09
-4.11217e-09
-4.10141e-09
-4.09049e-09
-4.0794e-09
-4.06817e-09
-4.05679e-09
-4.04527e-09
-4.03362e-09
-4.02183e-09
-4.00992e-09
-3.9979e-09
-3.98575e-09
-3.9735e-09
-3.96113e-09
-3.94866e-09
-3.9361e-09
-3.92343e-09
-3.91066e-09
-3.8978e-09
-3.88484e-09
-3.87178e-09
-3.85863e-09
-3.84536e-09
-3.83199e-09
-3.81851e-09
-3.8049e-09
-3.79116e-09
-3.77728e-09
-3.76324e-09
-3.74902e-09
-3.73461e-09
-3.71998e-09
-3.70511e-09
-3.68996e-09
-3.67451e-09
-3.65871e-09
-3.64253e-09
-3.62591e-09
-3.60879e-09
-3.59112e-09
-3.57284e-09
-3.55385e-09
-3.53408e-09
-3.51343e-09
-3.4918e-09
-3.46908e-09
-3.44514e-09
-3.41983e-09
-3.39301e-09
-3.36452e-09
-3.33416e-09
-3.30175e-09
-3.26707e-09
-3.22988e-09
-3.18995e-09
-3.147e-09
-3.10075e-09
-3.0509e-09
-2.99712e-09
-2.93907e-09
-2.87641e-09
-2.80876e-09
-2.73574e-09
-2.65696e-09
-2.57202e-09
-2.48053e-09
-2.38209e-09
-2.27633e-09
-2.16286e-09
-2.04135e-09
-1.91149e-09
-1.77302e-09
-1.62571e-09
-1.46943e-09
-1.30411e-09
-1.12978e-09
-9.46569e-10
-7.54759e-10
-5.54774e-10
-3.47232e-10
-1.32971e-10
8.68932e-11
3.10918e-10
5.37258e-10
7.63593e-10
9.87049e-10
1.20413e-09
1.41069e-09
1.60194e-09
1.77262e-09
1.91717e-09
2.03017e-09
2.10684e-09
2.14355e-09
2.1384e-09
2.09138e-09
2.0028e-09
1.87563e-09
1.71385e-09
1.52706e-09
1.31225e-09
1.02249e-09
6.34444e-10
2.86754e-10
2.20899e-10
2.23954e-10
1.87593e-10
1.34778e-10
2.06808e-10
3.54389e-10
4.73509e-10
5.5649e-10
6.25109e-10
6.89411e-10
7.5715e-10
8.35288e-10
9.28243e-10
1.03721e-09
1.16064e-09
1.29519e-09
1.43667e-09
1.58073e-09
1.72339e-09
1.86127e-09
1.99163e-09
2.11238e-09
2.22195e-09
2.31923e-09
2.40346e-09
2.47416e-09
2.53105e-09
2.57405e-09
2.60321e-09
2.6187e-09
2.62078e-09
2.60983e-09
2.58626e-09
2.55058e-09
2.50334e-09
2.44512e-09
2.37655e-09
2.29828e-09
2.21098e-09
2.11532e-09
2.01198e-09
1.90163e-09
1.78494e-09
1.66256e-09
1.53511e-09
1.40321e-09
1.26745e-09
1.1284e-09
9.86575e-10
8.425e-10
6.96653e-10
5.4949e-10
4.01435e-10
2.5289e-10
1.04227e-10
-4.42068e-11
-1.92086e-10
-3.39113e-10
-4.85011e-10
-6.29525e-10
-7.72422e-10
-9.13486e-10
-1.05252e-09
-1.18935e-09
-1.32382e-09
-1.45577e-09
-1.58508e-09
-1.71163e-09
-1.83533e-09
-1.95607e-09
-2.07379e-09
-2.18841e-09
-2.29989e-09
-2.40817e-09
-2.51322e-09
-2.61501e-09
-2.71352e-09
-2.80875e-09
-2.90068e-09
-2.98933e-09
-3.07471e-09
-3.15683e-09
-3.23571e-09
-3.31139e-09
-3.38389e-09
-3.45326e-09
-3.51954e-09
-3.58279e-09
-3.64304e-09
-3.70035e-09
-3.75479e-09
-3.80642e-09
-3.85529e-09
-3.90149e-09
-3.94507e-09
-3.98611e-09
-4.02469e-09
-4.06088e-09
-4.09475e-09
-4.12639e-09
-4.15587e-09
-4.18327e-09
-4.20867e-09
-4.23215e-09
-4.2538e-09
-4.27368e-09
-4.29189e-09
-4.3085e-09
-4.3236e-09
-4.33725e-09
-4.34953e-09
-4.36053e-09
-4.37031e-09
-4.37895e-09
-4.38653e-09
-4.3931e-09
-4.39875e-09
-4.40353e-09
-4.40751e-09
-4.41076e-09
-4.41333e-09
-4.41528e-09
-4.41668e-09
-4.41756e-09
-4.41799e-09
-4.41802e-09
-4.41768e-09
-4.41703e-09
-4.4161e-09
-4.41495e-09
-4.41359e-09
-4.41207e-09
-4.41043e-09
-4.40868e-09
-4.40686e-09
-4.40499e-09
-4.4031e-09
-4.4012e-09
-4.39932e-09
-4.39747e-09
-4.39567e-09
-4.39392e-09
-4.39224e-09
-4.39064e-09
-4.38912e-09
-4.38769e-09
-4.38635e-09
-4.3851e-09
-4.38395e-09
-4.38289e-09
-4.38193e-09
-4.38105e-09
-4.38025e-09
-4.37953e-09
-4.37888e-09
-4.37829e-09
-4.37776e-09
-4.37728e-09
-4.37683e-09
-4.37642e-09
-4.37601e-09
-4.37562e-09
-4.37522e-09
-4.3748e-09
-4.37435e-09
-4.37387e-09
-4.37333e-09
-4.37273e-09
-4.37206e-09
-4.3713e-09
-4.37044e-09
-4.36947e-09
-4.36838e-09
-4.36717e-09
-4.36581e-09
-4.3643e-09
-4.36263e-09
-4.36079e-09
-4.35877e-09
-4.35657e-09
-4.35417e-09
-4.35157e-09
-4.34876e-09
-4.34574e-09
-4.34249e-09
-4.33902e-09
-4.33532e-09
-4.33138e-09
-4.32721e-09
-4.32279e-09
-4.31813e-09
-4.31322e-09
-4.30806e-09
-4.30265e-09
-4.29699e-09
-4.29108e-09
-4.28492e-09
-4.27851e-09
-4.27185e-09
-4.26494e-09
-4.25779e-09
-4.2504e-09
-4.24276e-09
-4.23489e-09
-4.22678e-09
-4.21844e-09
-4.20988e-09
-4.20109e-09
-4.19209e-09
-4.18287e-09
-4.17344e-09
-4.16382e-09
-4.15399e-09
-4.14397e-09
-4.13376e-09
-4.12337e-09
-4.11281e-09
-4.10208e-09
-4.09119e-09
-4.08013e-09
-4.06893e-09
-4.05758e-09
-4.04609e-09
-4.03446e-09
-4.0227e-09
-4.01083e-09
-3.99883e-09
-3.98672e-09
-3.9745e-09
-3.96217e-09
-3.94974e-09
-3.93721e-09
-3.92459e-09
-3.91187e-09
-3.89906e-09
-3.88615e-09
-3.87316e-09
-3.86006e-09
-3.84688e-09
-3.83358e-09
-3.82019e-09
-3.80668e-09
-3.79304e-09
-3.77927e-09
-3.76536e-09
-3.75128e-09
-3.73703e-09
-3.72257e-09
-3.70789e-09
-3.69296e-09
-3.67774e-09
-3.6622e-09
-3.6463e-09
-3.62999e-09
-3.61323e-09
-3.59594e-09
-3.57808e-09
-3.55956e-09
-3.5403e-09
-3.52022e-09
-3.49921e-09
-3.47717e-09
-3.45397e-09
-3.42949e-09
-3.40357e-09
-3.37606e-09
-3.34678e-09
-3.31554e-09
-3.28213e-09
-3.24634e-09
-3.20792e-09
-3.16661e-09
-3.12214e-09
-3.07421e-09
-3.0225e-09
-2.96669e-09
-2.90643e-09
-2.84135e-09
-2.77108e-09
-2.69523e-09
-2.61341e-09
-2.52522e-09
-2.43026e-09
-2.32816e-09
-2.21852e-09
-2.10099e-09
-1.97526e-09
-1.84103e-09
-1.69806e-09
-1.54616e-09
-1.38523e-09
-1.21523e-09
-1.03624e-09
-8.48433e-10
-6.52144e-10
-4.4786e-10
-2.36272e-10
-1.83168e-11
2.04767e-10
4.31369e-10
6.59431e-10
8.86361e-10
1.10895e-09
1.32333e-09
1.52497e-09
1.70875e-09
1.8692e-09
2.00085e-09
2.0987e-09
2.15879e-09
2.17862e-09
2.1574e-09
2.09536e-09
1.99358e-09
1.85465e-09
1.68733e-09
1.48979e-09
1.2095e-09
8.01583e-10
3.98394e-10
3.0397e-10
2.91479e-10
2.19016e-10
9.99122e-11
1.25076e-10
2.59883e-10
3.76726e-10
4.60229e-10
5.35206e-10
6.11252e-10
6.94511e-10
7.90581e-10
9.02781e-10
1.03134e-09
1.1739e-09
1.32648e-09
1.48442e-09
1.64308e-09
1.79834e-09
1.94678e-09
2.08574e-09
2.21321e-09
2.32781e-09
2.4286e-09
2.51498e-09
2.58665e-09
2.64351e-09
2.68564e-09
2.71322e-09
2.72656e-09
2.72603e-09
2.7121e-09
2.68529e-09
2.64617e-09
2.59535e-09
2.53348e-09
2.46123e-09
2.37929e-09
2.28836e-09
2.18913e-09
2.0823e-09
1.96857e-09
1.8486e-09
1.72306e-09
1.59257e-09
1.45775e-09
1.3192e-09
1.17747e-09
1.0331e-09
8.86589e-10
7.3842e-10
5.89045e-10
4.38882e-10
2.88328e-10
1.37752e-10
-1.25049e-11
-1.62123e-10
-3.10806e-10
-4.58285e-10
-6.04307e-10
-7.48643e-10
-8.91082e-10
-1.03143e-09
-1.16952e-09
-1.30518e-09
-1.43828e-09
-1.56869e-09
-1.69629e-09
-1.82099e-09
-1.9427e-09
-2.06133e-09
-2.17684e-09
-2.28915e-09
-2.39824e-09
-2.50405e-09
-2.60658e-09
-2.70579e-09
-2.80169e-09
-2.89426e-09
-2.98351e-09
-3.06947e-09
-3.15213e-09
-3.23153e-09
-3.3077e-09
-3.38066e-09
-3.45047e-09
-3.51716e-09
-3.58079e-09
-3.6414e-09
-3.69905e-09
-3.7538e-09
-3.80571e-09
-3.85486e-09
-3.9013e-09
-3.9451e-09
-3.98635e-09
-4.02511e-09
-4.06146e-09
-4.09548e-09
-4.12724e-09
-4.15683e-09
-4.18432e-09
-4.2098e-09
-4.23334e-09
-4.25503e-09
-4.27495e-09
-4.29318e-09
-4.3098e-09
-4.32488e-09
-4.33852e-09
-4.35078e-09
-4.36174e-09
-4.37147e-09
-4.38006e-09
-4.38757e-09
-4.39408e-09
-4.39965e-09
-4.40435e-09
-4.40825e-09
-4.41141e-09
-4.41389e-09
-4.41575e-09
-4.41704e-09
-4.41783e-09
-4.41816e-09
-4.41808e-09
-4.41765e-09
-4.41689e-09
-4.41587e-09
-4.41461e-09
-4.41316e-09
-4.41155e-09
-4.40981e-09
-4.40797e-09
-4.40606e-09
-4.40411e-09
-4.40214e-09
-4.40017e-09
-4.39822e-09
-4.3963e-09
-4.39443e-09
-4.39262e-09
-4.39089e-09
-4.38924e-09
-4.38767e-09
-4.3862e-09
-4.38483e-09
-4.38355e-09
-4.38237e-09
-4.38129e-09
-4.38031e-09
-4.37942e-09
-4.37861e-09
-4.37789e-09
-4.37724e-09
-4.37666e-09
-4.37614e-09
-4.37567e-09
-4.37524e-09
-4.37484e-09
-4.37446e-09
-4.37409e-09
-4.37372e-09
-4.37333e-09
-4.37292e-09
-4.37247e-09
-4.37197e-09
-4.37142e-09
-4.37078e-09
-4.37007e-09
-4.36925e-09
-4.36833e-09
-4.3673e-09
-4.36613e-09
-4.36482e-09
-4.36336e-09
-4.36174e-09
-4.35996e-09
-4.35799e-09
-4.35584e-09
-4.35349e-09
-4.35095e-09
-4.34819e-09
-4.34522e-09
-4.34202e-09
-4.3386e-09
-4.33495e-09
-4.33107e-09
-4.32694e-09
-4.32257e-09
-4.31796e-09
-4.31309e-09
-4.30798e-09
-4.30262e-09
-4.297e-09
-4.29113e-09
-4.28501e-09
-4.27864e-09
-4.27203e-09
-4.26516e-09
-4.25804e-09
-4.25069e-09
-4.24308e-09
-4.23525e-09
-4.22717e-09
-4.21887e-09
-4.21033e-09
-4.20158e-09
-4.1926e-09
-4.18341e-09
-4.17402e-09
-4.16441e-09
-4.15461e-09
-4.14462e-09
-4.13444e-09
-4.12407e-09
-4.11354e-09
-4.10283e-09
-4.09196e-09
-4.08093e-09
-4.06975e-09
-4.05842e-09
-4.04696e-09
-4.03536e-09
-4.02363e-09
-4.01178e-09
-3.99981e-09
-3.98773e-09
-3.97554e-09
-3.96325e-09
-3.95085e-09
-3.93837e-09
-3.92579e-09
-3.91312e-09
-3.90036e-09
-3.88751e-09
-3.87457e-09
-3.86155e-09
-3.84844e-09
-3.83523e-09
-3.82193e-09
-3.80852e-09
-3.795e-09
-3.78136e-09
-3.76759e-09
-3.75367e-09
-3.73959e-09
-3.72532e-09
-3.71086e-09
-3.69616e-09
-3.68121e-09
-3.66596e-09
-3.65038e-09
-3.63443e-09
-3.61806e-09
-3.60121e-09
-3.58383e-09
-3.56584e-09
-3.54717e-09
-3.52773e-09
-3.50743e-09
-3.48617e-09
-3.46383e-09
-3.44028e-09
-3.41539e-09
-3.389e-09
-3.36095e-09
-3.33106e-09
-3.29912e-09
-3.26492e-09
-3.22824e-09
-3.18881e-09
-3.14638e-09
-3.10065e-09
-3.05133e-09
-2.99809e-09
-2.94059e-09
-2.87847e-09
-2.81137e-09
-2.7389e-09
-2.66067e-09
-2.57629e-09
-2.48536e-09
-2.38749e-09
-2.28229e-09
-2.16939e-09
-2.04845e-09
-1.91917e-09
-1.78126e-09
-1.6345e-09
-1.47873e-09
-1.31387e-09
-1.1399e-09
-9.56928e-10
-7.65162e-10
-5.64963e-10
-3.5687e-10
-1.41639e-10
7.97023e-11
3.05779e-10
5.34795e-10
7.64436e-10
9.91776e-10
1.21321e-09
1.4244e-09
1.62039e-09
1.7957e-09
1.94474e-09
2.06217e-09
2.14356e-09
2.18577e-09
2.18724e-09
2.14765e-09
2.06713e-09
1.94742e-09
1.79717e-09
1.61789e-09
1.35683e-09
9.5001e-10
5.15389e-10
4.07994e-10
3.99765e-10
3.10824e-10
1.33075e-10
1.08266e-10
2.25775e-10
3.36029e-10
4.14981e-10
4.91194e-10
5.74354e-10
6.69124e-10
7.79721e-10
9.08309e-10
1.05409e-09
1.21382e-09
1.38279e-09
1.55582e-09
1.7279e-09
1.89473e-09
2.0528e-09
2.19946e-09
2.33283e-09
2.45163e-09
2.55509e-09
2.6428e-09
2.71462e-09
2.77063e-09
2.81105e-09
2.83623e-09
2.84659e-09
2.84265e-09
2.82496e-09
2.79413e-09
2.75082e-09
2.69572e-09
2.62951e-09
2.55293e-09
2.46669e-09
2.37153e-09
2.26817e-09
2.15734e-09
2.03972e-09
1.916e-09
1.78686e-09
1.65292e-09
1.51481e-09
1.37311e-09
1.22838e-09
1.08115e-09
9.31926e-10
7.81176e-10
6.29349e-10
4.76858e-10
3.24092e-10
1.71415e-10
1.91647e-11
-1.32347e-10
-2.82831e-10
-4.32019e-10
-5.79668e-10
-7.2555e-10
-8.6946e-10