/*--------------------------------*- C++ -*----------------------------------*\
| =========                 |                                                 |
| \\      /  F ield         | OpenFOAM: The Open Source CFD Toolbox           |
|  \\    /   O peration     | Version:  2112                                  |
|   \\  /    A nd           | Website:  www.openfoam.com                      |
|    \\/     M anipulation  |                                                 |
\*---------------------------------------------------------------------------*/
FoamFile
{
    version     2.0;
    format      ascii;
    arch        "LSB;label=32;scalar=64";
    class       surfaceScalarField;
    location    "5.94";
    object      phi;
}
// * * * * * * * * * * * * * * * * * * * * * * * * * * * * * * * * * * * * * //

dimensions      [0 3 -1 0 0 0 0];

oriented        oriented;

internalField   nonuniform List<scalar> 
50800
(
0.000471203
1.87346e-12
0.000471203
-9.61983e-13
0.000471203
-2.76032e-12
0.000471203
-3.3185e-12
0.000471203
-3.25066e-12
0.000471203
-2.99434e-12
0.000471203
-2.69137e-12
0.000471203
-2.3859e-12
0.000471203
-2.1001e-12
0.000471203
-1.84009e-12
0.000471203
-1.60677e-12
0.000471203
-1.39936e-12
0.000471203
-1.21621e-12
0.000471203
-1.05509e-12
0.000471203
-9.13459e-13
0.000471203
-7.88731e-13
0.000471203
-6.78489e-13
0.000471203
-5.80606e-13
0.000471203
-4.93293e-13
0.000471203
-4.15088e-13
0.000471203
-3.44803e-13
0.000471203
-2.81478e-13
0.000471203
-2.2432e-13
0.000471203
-1.7267e-13
0.000471203
-1.2596e-13
0.000471203
-8.37124e-14
0.000471203
-4.5806e-14
0.000471203
-1.09492e-14
0.000471203
2.06844e-14
0.000471203
4.87574e-14
0.000471203
7.4346e-14
0.000471203
9.74978e-14
0.000471203
1.18412e-13
0.000471203
1.37286e-13
0.000471203
1.54293e-13
0.000471203
1.6959e-13
0.000471203
1.83322e-13
0.000471203
1.95614e-13
0.000471203
2.06579e-13
0.000471203
2.16323e-13
0.000471203
2.24937e-13
0.000471203
2.32504e-13
0.000471203
2.39101e-13
0.000471203
2.44797e-13
0.000471203
2.49656e-13
0.000471203
2.53736e-13
0.000471203
2.57091e-13
0.000471203
2.5977e-13
0.000471203
2.61817e-13
0.000471203
2.63277e-13
0.000471203
2.64187e-13
0.000471203
2.64585e-13
0.000471203
2.64503e-13
0.000471203
2.63975e-13
0.000471203
2.6303e-13
0.000471203
2.61694e-13
0.000471203
2.59995e-13
0.000471203
2.57959e-13
0.000471203
2.55606e-13
0.000471203
2.5296e-13
0.000471203
2.5004e-13
0.000471203
2.46869e-13
0.000471203
2.43463e-13
0.000471203
2.3984e-13
0.000471203
2.36018e-13
0.000471203
2.32011e-13
0.000471203
2.27837e-13
0.000471203
2.2351e-13
0.000471203
2.19044e-13
0.000471203
2.14452e-13
0.000471203
2.09748e-13
0.000471203
2.04946e-13
0.000471203
2.00055e-13
0.000471203
1.95091e-13
0.000471203
1.90061e-13
0.000471203
1.84978e-13
0.000471203
1.79853e-13
0.000471203
1.74696e-13
0.000471203
1.69516e-13
0.000471203
1.64324e-13
0.000471203
1.59127e-13
0.000471203
1.53936e-13
0.000471203
1.4876e-13
0.000471203
1.43605e-13
0.000471203
1.38482e-13
0.000471203
1.33396e-13
0.000471203
1.28355e-13
0.000471203
1.23367e-13
0.000471203
1.1844e-13
0.000471203
1.13576e-13
0.000471203
1.08784e-13
0.000471203
1.0407e-13
0.000471203
9.94405e-14
0.000471203
9.48986e-14
0.000471203
9.04482e-14
0.000471203
8.60955e-14
0.000471203
8.18464e-14
0.000471203
7.77012e-14
0.000471203
7.36667e-14
0.000471203
6.97441e-14
0.000471203
6.59339e-14
0.000471203
6.22447e-14
0.000471203
5.86751e-14
0.000471203
5.52274e-14
0.000471203
5.19045e-14
0.000471203
4.87034e-14
0.000471203
4.5628e-14
0.000471203
4.26818e-14
0.000471203
3.98624e-14
0.000471203
3.71684e-14
0.000471203
3.46011e-14
0.000471203
3.21582e-14
0.000471203
2.98431e-14
0.000471203
2.76534e-14
0.000471203
2.55838e-14
0.000471203
2.36361e-14
0.000471203
2.18092e-14
0.000471203
2.01006e-14
0.000471203
1.85061e-14
0.000471203
1.70243e-14
0.000471203
1.56546e-14
0.000471203
1.43911e-14
0.000471203
1.32331e-14
0.000471203
1.21794e-14
0.000471203
1.12215e-14
0.000471203
1.03571e-14
0.000471203
9.58527e-15
0.000471203
8.90374e-15
0.000471203
8.30514e-15
0.000471203
7.78594e-15
0.000471203
7.34472e-15
0.000471203
6.97564e-15
0.000471203
6.67707e-15
0.000471203
6.44349e-15
0.000471203
6.27053e-15
0.000471203
6.15501e-15
0.000471203
6.09153e-15
0.000471203
6.08013e-15
0.000471203
6.1158e-15
0.000471203
6.1894e-15
0.000471203
6.30304e-15
0.000471203
6.45264e-15
0.000471203
6.63407e-15
0.000471203
6.84159e-15
0.000471203
7.07409e-15
0.000471203
7.32752e-15
0.000471203
7.59588e-15
0.000471203
7.88283e-15
0.000471203
8.18186e-15
0.000471203
8.48709e-15
0.000471203
8.79888e-15
0.000471203
9.11395e-15
0.000471203
9.43187e-15
0.000471203
9.74879e-15
0.000471203
1.00597e-14
0.000471203
1.03659e-14
0.000471203
1.06643e-14
0.000471203
1.09558e-14
0.000471203
1.12362e-14
0.000471203
1.15022e-14
0.000471203
1.17561e-14
0.000471203
1.19925e-14
0.000471203
1.2215e-14
0.000471203
1.24212e-14
0.000471203
1.26044e-14
0.000471203
1.27726e-14
0.000471203
1.2922e-14
0.000471203
1.30493e-14
0.000471203
1.31576e-14
0.000471203
1.32447e-14
0.000471203
1.33103e-14
0.000471203
1.33534e-14
0.000471203
1.33795e-14
0.000471203
1.33803e-14
0.000471203
1.33594e-14
0.000471203
1.3323e-14
0.000471203
1.32598e-14
0.000471203
1.31792e-14
0.000471203
1.30807e-14
0.000471203
1.29602e-14
0.000471203
1.282e-14
0.000471203
1.26605e-14
0.000471203
1.24858e-14
0.000471203
1.22942e-14
0.000471203
1.20841e-14
0.000471203
1.18587e-14
0.000471203
1.16155e-14
0.000471203
1.13606e-14
0.000471203
1.10929e-14
0.000471203
1.08071e-14
0.000471203
1.05119e-14
0.000471203
1.02061e-14
0.000471203
9.8875e-15
0.000471203
9.55967e-15
0.000471203
9.22143e-15
0.000471203
8.87342e-15
0.000471203
8.51678e-15
0.000471203
8.15661e-15
0.000471203
7.78545e-15
0.000471203
7.40685e-15
0.000471203
7.02841e-15
0.000471203
6.63977e-15
0.000471203
6.24789e-15
0.000471203
5.85489e-15
0.000471203
5.45552e-15
0.000471203
5.05421e-15
0.000471203
4.65042e-15
0.000471203
4.24635e-15
0.000471203
3.83996e-15
0.000471203
3.43122e-15
0.000471203
3.02406e-15
0.000471203
2.61422e-15
0.000471203
2.20558e-15
0.000471203
1.79762e-15
0.000471203
1.38884e-15
0.000471203
9.84647e-16
0.000471203
5.81043e-16
0.000471203
1.78138e-16
0.000471203
-2.25817e-16
0.000471203
-6.2641e-16
0.000471203
-1.021e-15
0.000471203
-1.41931e-15
0.000471203
-1.80985e-15
0.000471203
-2.20292e-15
0.000471203
-2.59368e-15
0.000471203
-2.97332e-15
0.000471203
-3.3591e-15
0.000471203
-3.73887e-15
0.000471203
-4.1155e-15
0.000471203
-4.49269e-15
0.000471203
-4.85909e-15
0.000471203
-5.22795e-15
0.000471203
-5.59525e-15
0.000471203
-5.95482e-15
0.000471203
-6.31434e-15
0.000471203
-6.66868e-15
0.000471203
-7.02215e-15
0.000471203
-7.37187e-15
0.000471203
-7.71831e-15
0.000471203
-8.06249e-15
0.000471203
-8.40039e-15
0.000471203
-8.73761e-15
0.000471203
-9.07256e-15
0.000471203
-9.40726e-15
0.000471203
-9.73773e-15
0.000471203
-1.00617e-14
0.000471203
-1.0391e-14
0.000471203
-1.07123e-14
0.000471203
-1.10372e-14
0.000471203
-1.13625e-14
0.000471203
-1.16787e-14
0.000471203
-1.20049e-14
0.000471203
-1.23287e-14
0.000471203
-1.2654e-14
0.000471203
-1.29868e-14
0.000471203
-1.33162e-14
0.000471203
-1.36566e-14
0.000471203
-1.40059e-14
0.000471203
-1.43594e-14
0.000471203
-1.47269e-14
0.000471203
-1.51056e-14
0.000471203
-1.55021e-14
0.000471203
-1.59188e-14
0.000471203
-1.6357e-14
0.000471203
-1.68226e-14
0.000471203
-1.73176e-14
0.000471203
-1.78501e-14
0.000471203
-1.84251e-14
0.000471203
-1.90505e-14
0.000471203
-1.97325e-14
0.000471203
-2.04737e-14
0.000471203
-2.12954e-14
0.000471203
-2.21994e-14
0.000471203
-2.32038e-14
0.000471203
-2.43198e-14
0.000471203
-2.55541e-14
0.000471203
-2.69392e-14
0.000471203
-2.84843e-14
0.000471203
-3.02127e-14
0.000471203
-3.21497e-14
0.000471203
-3.4312e-14
0.000471203
-3.67375e-14
0.000471203
-3.94552e-14
0.000471203
-4.24935e-14
0.000471203
-4.58918e-14
0.000471203
-4.96845e-14
0.000471203
-5.39189e-14
0.000471203
-5.86351e-14
0.000471203
-6.38795e-14
0.000471203
-6.9697e-14
0.000471203
-7.61394e-14
0.000471203
-8.32656e-14
0.000471203
-9.11219e-14
0.000471203
-9.97671e-14
0.000471203
-1.09258e-13
0.000471203
-1.19641e-13
0.000471203
-1.30976e-13
0.000471203
-1.4329e-13
0.000471203
-1.56599e-13
0.000471203
-1.70874e-13
0.000471203
-1.86007e-13
0.000471203
-2.01805e-13
0.000471203
-2.1788e-13
0.000471203
-2.33593e-13
0.000471203
-2.47918e-13
0.000471203
-2.59252e-13
0.000471203
-2.6518e-13
0.000471203
-2.62132e-13
0.000471203
-2.44384e-13
0.000471203
-2.03344e-13
0.000471203
-1.24567e-13
0.000471203
2.56842e-14
0.000471203
2.46917e-13
0.000471203
6.14967e-13
0.000471203
1.18291e-12
0.000471203
2.01458e-12
0.000471203
3.13071e-12
0.000471203
4.36516e-12
0.000471203
5.06189e-12
4.28165e-12
0.00139002
6.07324e-12
0.00139002
-1.46096e-12
0.00139002
-6.97891e-12
0.00139002
-9.42429e-12
0.00139002
-9.90469e-12
0.00139002
-9.57391e-12
0.00139002
-8.91343e-12
0.00139002
-8.12158e-12
0.00139002
-7.3075e-12
0.00139002
-6.52106e-12
0.00139002
-5.78386e-12
0.00139002
-5.10454e-12
0.00139002
-4.48519e-12
0.00139002
-3.92433e-12
0.00139002
-3.41845e-12
0.00139002
-2.96307e-12
0.00139002
-2.5534e-12
0.00139002
-2.18475e-12
0.00139002
-1.85275e-12
0.00139002
-1.55348e-12
0.00139002
-1.28346e-12
0.00139002
-1.03965e-12
0.00139002
-8.19367e-13
0.00139002
-6.20273e-13
0.00139002
-4.40296e-13
0.00139002
-2.77603e-13
0.00139002
-1.30521e-13
0.00139002
1.67968e-15
0.00139002
1.22484e-13
0.00139002
2.3059e-13
0.00139002
3.28188e-13
0.00139002
4.16147e-13
0.00139002
4.95294e-13
0.00139002
5.664e-13
0.00139002
6.30156e-13
0.00139002
6.87187e-13
0.00139002
7.38063e-13
0.00139002
7.8329e-13
0.00139002
8.23331e-13
0.00139002
8.58603e-13
0.00139002
8.89482e-13
0.00139002
9.16312e-13
0.00139002
9.39401e-13
0.00139002
9.59034e-13
0.00139002
9.75468e-13
0.00139002
9.88939e-13
0.00139002
9.99665e-13
0.00139002
1.00784e-12
0.00139002
1.01365e-12
0.00139002
1.01726e-12
0.00139002
1.01882e-12
0.00139002
1.01848e-12
0.00139002
1.01637e-12
0.00139002
1.01262e-12
0.00139002
1.00734e-12
0.00139002
1.00063e-12
0.00139002
9.92603e-13
0.00139002
9.83347e-13
0.00139002
9.7295e-13
0.00139002
9.61495e-13
0.00139002
9.49062e-13
0.00139002
9.35727e-13
0.00139002
9.21558e-13
0.00139002
9.06622e-13
0.00139002
8.90987e-13
0.00139002
8.74707e-13
0.00139002
8.57849e-13
0.00139002
8.40463e-13
0.00139002
8.22603e-13
0.00139002
8.0432e-13
0.00139002
7.85664e-13
0.00139002
7.66686e-13
0.00139002
7.47429e-13
0.00139002
7.27938e-13
0.00139002
7.08254e-13
0.00139002
6.88419e-13
0.00139002
6.68473e-13
0.00139002
6.48454e-13
0.00139002
6.28399e-13
0.00139002
6.08343e-13
0.00139002
5.88319e-13
0.00139002
5.68363e-13
0.00139002
5.48506e-13
0.00139002
5.2878e-13
0.00139002
5.09212e-13
0.00139002
4.8983e-13
0.00139002
4.70661e-13
0.00139002
4.51735e-13
0.00139002
4.33071e-13
0.00139002
4.14692e-13
0.00139002
3.9662e-13
0.00139002
3.78881e-13
0.00139002
3.61491e-13
0.00139002
3.44467e-13
0.00139002
3.27826e-13
0.00139002
3.11581e-13
0.00139002
2.95754e-13
0.00139002
2.80352e-13
0.00139002
2.65389e-13
0.00139002
2.50873e-13
0.00139002
2.36813e-13
0.00139002
2.23223e-13
0.00139002
2.10105e-13
0.00139002
1.97465e-13
0.00139002
1.8531e-13
0.00139002
1.73636e-13
0.00139002
1.62448e-13
0.00139002
1.51754e-13
0.00139002
1.41549e-13
0.00139002
1.31826e-13
0.00139002
1.22589e-13
0.00139002
1.1383e-13
0.00139002
1.05549e-13
0.00139002
9.77413e-14
0.00139002
9.03945e-14
0.00139002
8.35056e-14
0.00139002
7.70659e-14
0.00139002
7.10669e-14
0.00139002
6.54983e-14
0.00139002
6.03504e-14
0.00139002
5.56112e-14
0.00139002
5.12671e-14
0.00139002
4.73134e-14
0.00139002
4.37347e-14
0.00139002
4.05107e-14
0.00139002
3.76318e-14
0.00139002
3.50866e-14
0.00139002
3.28616e-14
0.00139002
3.09397e-14
0.00139002
2.93047e-14
0.00139002
2.79462e-14
0.00139002
2.68462e-14
0.00139002
2.59912e-14
0.00139002
2.53667e-14
0.00139002
2.49547e-14
0.00139002
2.47429e-14
0.00139002
2.47144e-14
0.00139002
2.4861e-14
0.00139002
2.51644e-14
0.00139002
2.56045e-14
0.00139002
2.61748e-14
0.00139002
2.68607e-14
0.00139002
2.76515e-14
0.00139002
2.85303e-14
0.00139002
2.94829e-14
0.00139002
3.04993e-14
0.00139002
3.15662e-14
0.00139002
3.26796e-14
0.00139002
3.38246e-14
0.00139002
3.49865e-14
0.00139002
3.61586e-14
0.00139002
3.73323e-14
0.00139002
3.85015e-14
0.00139002
3.96542e-14
0.00139002
4.07813e-14
0.00139002
4.18805e-14
0.00139002
4.29431e-14
0.00139002
4.39624e-14
0.00139002
4.49363e-14
0.00139002
4.5853e-14
0.00139002
4.67107e-14
0.00139002
4.75058e-14
0.00139002
4.82375e-14
0.00139002
4.88979e-14
0.00139002
4.9482e-14
0.00139002
4.99974e-14
0.00139002
5.04344e-14
0.00139002
5.07937e-14
0.00139002
5.10763e-14
0.00139002
5.12773e-14
0.00139002
5.13968e-14
0.00139002
5.14337e-14
0.00139002
5.13969e-14
0.00139002
5.12768e-14
0.00139002
5.10763e-14
0.00139002
5.08037e-14
0.00139002
5.04481e-14
0.00139002
5.00208e-14
0.00139002
4.95243e-14
0.00139002
4.8952e-14
0.00139002
4.83108e-14
0.00139002
4.76016e-14
0.00139002
4.68297e-14
0.00139002
4.59981e-14
0.00139002
4.51051e-14
0.00139002
4.41542e-14
0.00139002
4.3146e-14
0.00139002
4.20928e-14
0.00139002
4.09894e-14
0.00139002
3.98343e-14
0.00139002
3.86425e-14
0.00139002
3.7408e-14
0.00139002
3.61371e-14
0.00139002
3.48337e-14
0.00139002
3.34956e-14
0.00139002
3.21261e-14
0.00139002
3.07282e-14
0.00139002
2.93129e-14
0.00139002
2.78726e-14
0.00139002
2.64082e-14
0.00139002
2.49342e-14
0.00139002
2.34419e-14
0.00139002
2.19361e-14
0.00139002
2.0423e-14
0.00139002
1.89002e-14
0.00139002
1.73713e-14
0.00139002
1.58372e-14
0.00139002
1.43028e-14
0.00139002
1.27642e-14
0.00139002
1.12254e-14
0.00139002
9.69125e-15
0.00139002
8.15504e-15
0.00139002
6.62784e-15
0.00139002
5.10415e-15
0.00139002
3.58605e-15
0.00139002
2.08204e-15
0.00139002
5.81882e-16
0.00139002
-9.08554e-16
0.00139002
-2.38995e-15
0.00139002
-3.86028e-15
0.00139002
-5.31216e-15
0.00139002
-6.75773e-15
0.00139002
-8.18848e-15
0.00139002
-9.60988e-15
0.00139002
-1.10185e-14
0.00139002
-1.24019e-14
0.00139002
-1.37803e-14
0.00139002
-1.51435e-14
0.00139002
-1.64914e-14
0.00139002
-1.78259e-14
0.00139002
-1.91368e-14
0.00139002
-2.0439e-14
0.00139002
-2.17265e-14
0.00139002
-2.29962e-14
0.00139002
-2.42538e-14
0.00139002
-2.54926e-14
0.00139002
-2.67196e-14
0.00139002
-2.79321e-14
0.00139002
-2.91323e-14
0.00139002
-3.03168e-14
0.00139002
-3.14835e-14
0.00139002
-3.26456e-14
0.00139002
-3.3795e-14
0.00139002
-3.49386e-14
0.00139002
-3.60735e-14
0.00139002
-3.71927e-14
0.00139002
-3.83177e-14
0.00139002
-3.94351e-14
0.00139002
-4.05573e-14
0.00139002
-4.16868e-14
0.00139002
-4.28095e-14
0.00139002
-4.39552e-14
0.00139002
-4.51158e-14
0.00139002
-4.62964e-14
0.00139002
-4.75087e-14
0.00139002
-4.87471e-14
0.00139002
-5.00335e-14
0.00139002
-5.13741e-14
0.00139002
-5.27695e-14
0.00139002
-5.42393e-14
0.00139002
-5.57886e-14
0.00139002
-5.74396e-14
0.00139002
-5.9206e-14
0.00139002
-6.1102e-14
0.00139002
-6.31466e-14
0.00139002
-6.53588e-14
0.00139002
-6.77693e-14
0.00139002
-7.03976e-14
0.00139002
-7.3279e-14
0.00139002
-7.64409e-14
0.00139002
-7.99092e-14
0.00139002
-8.37414e-14
0.00139002
-8.79687e-14
0.00139002
-9.2642e-14
0.00139002
-9.78107e-14
0.00139002
-1.03518e-13
0.00139002
-1.09849e-13
0.00139002
-1.16856e-13
0.00139002
-1.2461e-13
0.00139002
-1.33196e-13
0.00139002
-1.42687e-13
0.00139002
-1.53182e-13
0.00139002
-1.6478e-13
0.00139002
-1.77581e-13
0.00139002
-1.91689e-13
0.00139002
-2.07219e-13
0.00139002
-2.243e-13
0.00139002
-2.43049e-13
0.00139002
-2.63592e-13
0.00139002
-2.86052e-13
0.00139002
-3.1055e-13
0.00139002
-3.37214e-13
0.00139002
-3.66142e-13
0.00139002
-3.97437e-13
0.00139002
-4.31164e-13
0.00139002
-4.67346e-13
0.00139002
-5.05981e-13
0.00139002
-5.46956e-13
0.00139002
-5.90058e-13
0.00139002
-6.34894e-13
0.00139002
-6.80798e-13
0.00139002
-7.26757e-13
0.00139002
-7.71147e-13
0.00139002
-8.11498e-13
0.00139002
-8.44082e-13
0.00139002
-8.63246e-13
0.00139002
-8.60527e-13
0.00139002
-8.23189e-13
0.00139002
-7.31995e-13
0.00139002
-5.57918e-13
0.00139002
-2.56769e-13
0.00139002
2.36015e-13
0.00139002
1.00432e-12
0.00139002
2.1764e-12
0.00139002
3.89527e-12
0.00139002
6.28315e-12
0.00139002
9.31459e-12
0.00139002
1.24399e-11
0.00139002
1.41035e-11
1.21489e-11
0.00228517
1.13068e-11
0.00228517
-4.7888e-13
0.00228517
-1.00565e-11
0.00228517
-1.52002e-11
0.00228517
-1.70432e-11
0.00228517
-1.72198e-11
0.00228517
-1.65592e-11
0.00228517
-1.54676e-11
0.00228517
-1.4191e-11
0.00228517
-1.28638e-11
0.00228517
-1.15573e-11
0.00228517
-1.03095e-11
0.00228517
-9.13942e-12
0.00228517
-8.05526e-12
0.00228517
-7.05856e-12
0.00228517
-6.14697e-12
0.00228517
-5.316e-12
0.00228517
-4.56011e-12
0.00228517
-3.87337e-12
0.00228517
-3.24992e-12
0.00228517
-2.68418e-12
0.00228517
-2.17097e-12
0.00228517
-1.70554e-12
0.00228517
-1.28354e-12
0.00228517
-9.0107e-13
0.00228517
-5.54571e-13
0.00228517
-2.40849e-13
0.00228517
4.29648e-14
0.00228517
2.99784e-13
0.00228517
5.31694e-13
0.00228517
7.40929e-13
0.00228517
9.29491e-13
0.00228517
1.09915e-12
0.00228517
1.25153e-12
0.00228517
1.38807e-12
0.00228517
1.5101e-12
0.00228517
1.61881e-12
0.00228517
1.71531e-12
0.00228517
1.80056e-12
0.00228517
1.87548e-12
0.00228517
1.94086e-12
0.00228517
1.99746e-12
0.00228517
2.04595e-12
0.00228517
2.08693e-12
0.00228517
2.12098e-12
0.00228517
2.14861e-12
0.00228517
2.17029e-12
0.00228517
2.18646e-12
0.00228517
2.1975e-12
0.00228517
2.20379e-12
0.00228517
2.20567e-12
0.00228517
2.20344e-12
0.00228517
2.19741e-12
0.00228517
2.18784e-12
0.00228517
2.17498e-12
0.00228517
2.15907e-12
0.00228517
2.14033e-12
0.00228517
2.11895e-12
0.00228517
2.09515e-12
0.00228517
2.0691e-12
0.00228517
2.04097e-12
0.00228517
2.01092e-12
0.00228517
1.97912e-12
0.00228517
1.94569e-12
0.00228517
1.9108e-12
0.00228517
1.87457e-12
0.00228517
1.83712e-12
0.00228517
1.79859e-12
0.00228517
1.75908e-12
0.00228517
1.71871e-12
0.00228517
1.67759e-12
0.00228517
1.63583e-12
0.00228517
1.59351e-12
0.00228517
1.55074e-12
0.00228517
1.50762e-12
0.00228517
1.46422e-12
0.00228517
1.42064e-12
0.00228517
1.37695e-12
0.00228517
1.33325e-12
0.00228517
1.2896e-12
0.00228517
1.24608e-12
0.00228517
1.20276e-12
0.00228517
1.15971e-12
0.00228517
1.11699e-12
0.00228517
1.07468e-12
0.00228517
1.03281e-12
0.00228517
9.91467e-13
0.00228517
9.50691e-13
0.00228517
9.10532e-13
0.00228517
8.71039e-13
0.00228517
8.3226e-13
0.00228517
7.9424e-13
0.00228517
7.57016e-13
0.00228517
7.20627e-13
0.00228517
6.85104e-13
0.00228517
6.50478e-13
0.00228517
6.16785e-13
0.00228517
5.84046e-13
0.00228517
5.52285e-13
0.00228517
5.2152e-13
0.00228517
4.9177e-13
0.00228517
4.63054e-13
0.00228517
4.3538e-13
0.00228517
4.08761e-13
0.00228517
3.83202e-13
0.00228517
3.58703e-13
0.00228517
3.35267e-13
0.00228517
3.12903e-13
0.00228517
2.91602e-13
0.00228517
2.71352e-13
0.00228517
2.52153e-13
0.00228517
2.3399e-13
0.00228517
2.16858e-13
0.00228517
2.00741e-13
0.00228517
1.85619e-13
0.00228517
1.71477e-13
0.00228517
1.58295e-13
0.00228517
1.46056e-13
0.00228517
1.34735e-13
0.00228517
1.24306e-13
0.00228517
1.14743e-13
0.00228517
1.06021e-13
0.00228517
9.81188e-14
0.00228517
9.10031e-14
0.00228517
8.46384e-14
0.00228517
7.89989e-14
0.00228517
7.40555e-14
0.00228517
6.97786e-14
0.00228517
6.61313e-14
0.00228517
6.30816e-14
0.00228517
6.06006e-14
0.00228517
5.86536e-14
0.00228517
5.72096e-14
0.00228517
5.62336e-14
0.00228517
5.56934e-14
0.00228517
5.55594e-14
0.00228517
5.57973e-14
0.00228517
5.63815e-14
0.00228517
5.72778e-14
0.00228517
5.84497e-14
0.00228517
5.9875e-14
0.00228517
6.15242e-14
0.00228517
6.33728e-14
0.00228517
6.53903e-14
0.00228517
6.75444e-14
0.00228517
6.98149e-14
0.00228517
7.21759e-14
0.00228517
7.46097e-14
0.00228517
7.70932e-14
0.00228517
7.95977e-14
0.00228517
8.21039e-14
0.00228517
8.45989e-14
0.00228517
8.7067e-14
0.00228517
8.94817e-14
0.00228517
9.18295e-14
0.00228517
9.41032e-14
0.00228517
9.62844e-14
0.00228517
9.83604e-14
0.00228517
1.00326e-13
0.00228517
1.02164e-13
0.00228517
1.03863e-13
0.00228517
1.05422e-13
0.00228517
1.06834e-13
0.00228517
1.08085e-13
0.00228517
1.09176e-13
0.00228517
1.10106e-13
0.00228517
1.10862e-13
0.00228517
1.11454e-13
0.00228517
1.11874e-13
0.00228517
1.12117e-13
0.00228517
1.12185e-13
0.00228517
1.12078e-13
0.00228517
1.11805e-13
0.00228517
1.1136e-13
0.00228517
1.10747e-13
0.00228517
1.09972e-13
0.00228517
1.09029e-13
0.00228517
1.07931e-13
0.00228517
1.06682e-13
0.00228517
1.05281e-13
0.00228517
1.03735e-13
0.00228517
1.02048e-13
0.00228517
1.00229e-13
0.00228517
9.82846e-14
0.00228517
9.62167e-14
0.00228517
9.40283e-14
0.00228517
9.17266e-14
0.00228517
8.93276e-14
0.00228517
8.6827e-14
0.00228517
8.42295e-14
0.00228517
8.15521e-14
0.00228517
7.879e-14
0.00228517
7.59571e-14
0.00228517
7.30579e-14
0.00228517
7.00931e-14
0.00228517
6.70707e-14
0.00228517
6.39944e-14
0.00228517
6.08775e-14
0.00228517
5.77227e-14
0.00228517
5.45259e-14
0.00228517
5.13036e-14
0.00228517
4.80564e-14
0.00228517
4.47868e-14
0.00228517
4.15039e-14
0.00228517
3.8211e-14
0.00228517
3.49115e-14
0.00228517
3.1606e-14
0.00228517
2.83066e-14
0.00228517
2.50058e-14
0.00228517
2.17122e-14
0.00228517
1.84336e-14
0.00228517
1.51632e-14
0.00228517
1.19155e-14
0.00228517
8.68246e-15
0.00228517
5.47114e-15
0.00228517
2.29109e-15
0.00228517
-8.69675e-16
0.00228517
-4.00141e-15
0.00228517
-7.10335e-15
0.00228517
-1.01743e-14
0.00228517
-1.32051e-14
0.00228517
-1.62048e-14
0.00228517
-1.917e-14
0.00228517
-2.21011e-14
0.00228517
-2.49942e-14
0.00228517
-2.7838e-14
0.00228517
-3.06491e-14
0.00228517
-3.34189e-14
0.00228517
-3.61481e-14
0.00228517
-3.88334e-14
0.00228517
-4.14699e-14
0.00228517
-4.40698e-14
0.00228517
-4.66239e-14
0.00228517
-4.91363e-14
0.00228517
-5.16072e-14
0.00228517
-5.40286e-14
0.00228517
-5.64117e-14
0.00228517
-5.87527e-14
0.00228517
-6.10535e-14
0.00228517
-6.33096e-14
0.00228517
-6.55211e-14
0.00228517
-6.77069e-14
0.00228517
-6.98552e-14
0.00228517
-7.19746e-14
0.00228517
-7.40651e-14
0.00228517
-7.61204e-14
0.00228517
-7.81673e-14
0.00228517
-8.01957e-14
0.00228517
-8.22191e-14
0.00228517
-8.42457e-14
0.00228517
-8.6267e-14
0.00228517
-8.83162e-14
0.00228517
-9.03927e-14
0.00228517
-9.25097e-14
0.00228517
-9.46862e-14
0.00228517
-9.69271e-14
0.00228517
-9.92669e-14
0.00228517
-1.0172e-13
0.00228517
-1.04303e-13
0.00228517
-1.07046e-13
0.00228517
-1.09976e-13
0.00228517
-1.13131e-13
0.00228517
-1.16547e-13
0.00228517
-1.20259e-13
0.00228517
-1.24313e-13
0.00228517
-1.28752e-13
0.00228517
-1.33641e-13
0.00228517
-1.39031e-13
0.00228517
-1.44994e-13
0.00228517
-1.51599e-13
0.00228517
-1.58913e-13
0.00228517
-1.67039e-13
0.00228517
-1.76064e-13
0.00228517
-1.86093e-13
0.00228517
-1.97234e-13
0.00228517
-2.09594e-13
0.00228517
-2.23333e-13
0.00228517
-2.38576e-13
0.00228517
-2.5547e-13
0.00228517
-2.74191e-13
0.00228517
-2.94901e-13
0.00228517
-3.17799e-13
0.00228517
-3.43084e-13
0.00228517
-3.70959e-13
0.00228517
-4.01641e-13
0.00228517
-4.3536e-13
0.00228517
-4.72367e-13
0.00228517
-5.12889e-13
0.00228517
-5.57171e-13
0.00228517
-6.05448e-13
0.00228517
-6.57939e-13
0.00228517
-7.1486e-13
0.00228517
-7.76377e-13
0.00228517
-8.4263e-13
0.00228517
-9.13674e-13
0.00228517
-9.89466e-13
0.00228517
-1.06986e-12
0.00228517
-1.15448e-12
0.00228517
-1.24272e-12
0.00228517
-1.33355e-12
0.00228517
-1.42543e-12
0.00228517
-1.51604e-12
0.00228517
-1.60191e-12
0.00228517
-1.67788e-12
0.00228517
-1.73641e-12
0.00228517
-1.76634e-12
0.00228517
-1.75127e-12
0.00228517
-1.66707e-12
0.00228517
-1.47827e-12
0.00228517
-1.13309e-12
0.00228517
-5.56296e-13
0.00228517
3.57418e-13
0.00228517
1.74597e-12
0.00228517
3.79455e-12
0.00228517
6.69608e-12
0.00228517
1.05816e-11
0.00228517
1.53299e-11
0.00228517
2.01047e-11
0.00228517
2.27247e-11
2.01463e-11
0.00315661
1.61802e-11
0.00315661
1.62027e-12
0.00315661
-1.13395e-11
0.00315661
-1.92978e-11
0.00315661
-2.2985e-11
0.00315661
-2.41992e-11
0.00315661
-2.39955e-11
0.00315661
-2.2955e-11
0.00315661
-2.14643e-11
0.00315661
-1.97587e-11
0.00315661
-1.79787e-11
0.00315661
-1.62082e-11
0.00315661
-1.44969e-11
0.00315661
-1.2873e-11
0.00315661
-1.13509e-11
0.00315661
-9.93642e-12
0.00315661
-8.62969e-12
0.00315661
-7.42763e-12
0.00315661
-6.32519e-12
0.00315661
-5.31635e-12
0.00315661
-4.39467e-12
0.00315661
-3.55371e-12
0.00315661
-2.7872e-12
0.00315661
-2.08922e-12
0.00315661
-1.45421e-12
0.00315661
-8.76981e-13
0.00315661
-3.52768e-13
0.00315661
1.22855e-13
0.00315661
5.53868e-13
0.00315661
9.44052e-13
0.00315661
1.29674e-12
0.00315661
1.61506e-12
0.00315661
1.90183e-12
0.00315661
2.15963e-12
0.00315661
2.39083e-12
0.00315661
2.59758e-12
0.00315661
2.78183e-12
0.00315661
2.94538e-12
0.00315661
3.08984e-12
0.00315661
3.21672e-12
0.00315661
3.32736e-12
0.00315661
3.42301e-12
0.00315661
3.5048e-12
0.00315661
3.57377e-12
0.00315661
3.63087e-12
0.00315661
3.67698e-12
0.00315661
3.71289e-12
0.00315661
3.73934e-12
0.00315661
3.75701e-12
0.00315661
3.76653e-12
0.00315661
3.76849e-12
0.00315661
3.76341e-12
0.00315661
3.75181e-12
0.00315661
3.73413e-12
0.00315661
3.71083e-12
0.00315661
3.6823e-12
0.00315661
3.64892e-12
0.00315661
3.61106e-12
0.00315661
3.56904e-12
0.00315661
3.52319e-12
0.00315661
3.47379e-12
0.00315661
3.42115e-12
0.00315661
3.36551e-12
0.00315661
3.30715e-12
0.00315661
3.24629e-12
0.00315661
3.18318e-12
0.00315661
3.11804e-12
0.00315661
3.05108e-12
0.00315661
2.9825e-12
0.00315661
2.91249e-12
0.00315661
2.84125e-12
0.00315661
2.76896e-12
0.00315661
2.69579e-12
0.00315661
2.6219e-12
0.00315661
2.54746e-12
0.00315661
2.47261e-12
0.00315661
2.39752e-12
0.00315661
2.32232e-12
0.00315661
2.24715e-12
0.00315661
2.17214e-12
0.00315661
2.09742e-12
0.00315661
2.0231e-12
0.00315661
1.94932e-12
0.00315661
1.87618e-12
0.00315661
1.80378e-12
0.00315661
1.73223e-12
0.00315661
1.66162e-12
0.00315661
1.59206e-12
0.00315661
1.52361e-12
0.00315661
1.45637e-12
0.00315661
1.3904e-12
0.00315661
1.32579e-12
0.00315661
1.26259e-12
0.00315661
1.20088e-12
0.00315661
1.1407e-12
0.00315661
1.08211e-12
0.00315661
1.02515e-12
0.00315661
9.69872e-13
0.00315661
9.16304e-13
0.00315661
8.64482e-13
0.00315661
8.14429e-13
0.00315661
7.66173e-13
0.00315661
7.1973e-13
0.00315661
6.75116e-13
0.00315661
6.32338e-13
0.00315661
5.91396e-13
0.00315661
5.5229e-13
0.00315661
5.15024e-13
0.00315661
4.79588e-13
0.00315661
4.45963e-13
0.00315661
4.14136e-13
0.00315661
3.84084e-13
0.00315661
3.55791e-13
0.00315661
3.2923e-13
0.00315661
3.04367e-13
0.00315661
2.8117e-13
0.00315661
2.59604e-13
0.00315661
2.39636e-13
0.00315661
2.21219e-13
0.00315661
2.04311e-13
0.00315661
1.88865e-13
0.00315661
1.74834e-13
0.00315661
1.62176e-13
0.00315661
1.50838e-13
0.00315661
1.40758e-13
0.00315661
1.31889e-13
0.00315661
1.24182e-13
0.00315661
1.1758e-13
0.00315661
1.12024e-13
0.00315661
1.07456e-13
0.00315661
1.03828e-13
0.00315661
1.01078e-13
0.00315661
9.91495e-14
0.00315661
9.79889e-14
0.00315661
9.75382e-14
0.00315661
9.77466e-14
0.00315661
9.85585e-14
0.00315661
9.99244e-14
0.00315661
1.01787e-13
0.00315661
1.04093e-13
0.00315661
1.06795e-13
0.00315661
1.09844e-13
0.00315661
1.13201e-13
0.00315661
1.16816e-13
0.00315661
1.20633e-13
0.00315661
1.24621e-13
0.00315661
1.28737e-13
0.00315661
1.32947e-13
0.00315661
1.37212e-13
0.00315661
1.41489e-13
0.00315661
1.45748e-13
0.00315661
1.49962e-13
0.00315661
1.54105e-13
0.00315661
1.5814e-13
0.00315661
1.62042e-13
0.00315661
1.65797e-13
0.00315661
1.69377e-13
0.00315661
1.72763e-13
0.00315661
1.75944e-13
0.00315661
1.78894e-13
0.00315661
1.81597e-13
0.00315661
1.84047e-13
0.00315661
1.86238e-13
0.00315661
1.88148e-13
0.00315661
1.89778e-13
0.00315661
1.91124e-13
0.00315661
1.9217e-13
0.00315661
1.92929e-13
0.00315661
1.93391e-13
0.00315661
1.9355e-13
0.00315661
1.93414e-13
0.00315661
1.92977e-13
0.00315661
1.92253e-13
0.00315661
1.91243e-13
0.00315661
1.89945e-13
0.00315661
1.88371e-13
0.00315661
1.86519e-13
0.00315661
1.84405e-13
0.00315661
1.82035e-13
0.00315661
1.79413e-13
0.00315661
1.76553e-13
0.00315661
1.73457e-13
0.00315661
1.70142e-13
0.00315661
1.66619e-13
0.00315661
1.62894e-13
0.00315661
1.5897e-13
0.00315661
1.54862e-13
0.00315661
1.50596e-13
0.00315661
1.46164e-13
0.00315661
1.41581e-13
0.00315661
1.36864e-13
0.00315661
1.32014e-13
0.00315661
1.27052e-13
0.00315661
1.21986e-13
0.00315661
1.16816e-13
0.00315661
1.1156e-13
0.00315661
1.06223e-13
0.00315661
1.00824e-13
0.00315661
9.53698e-14
0.00315661
8.98582e-14
0.00315661
8.43074e-14
0.00315661
7.87262e-14
0.00315661
7.31172e-14
0.00315661
6.74952e-14
0.00315661
6.18662e-14
0.00315661
5.62345e-14
0.00315661
5.06069e-14
0.00315661
4.49957e-14
0.00315661
3.93959e-14
0.00315661
3.38196e-14
0.00315661
2.82761e-14
0.00315661
2.2762e-14
0.00315661
1.72941e-14
0.00315661
1.18648e-14
0.00315661
6.48353e-15
0.00315661
1.16397e-15
0.00315661
-4.10652e-15
0.00315661
-9.31498e-15
0.00315661
-1.44594e-14
0.00315661
-1.95401e-14
0.00315661
-2.45424e-14
0.00315661
-2.94729e-14
0.00315661
-3.43336e-14
0.00315661
-3.91187e-14
0.00315661
-4.38236e-14
0.00315661
-4.84378e-14
0.00315661
-5.29726e-14
0.00315661
-5.74206e-14
0.00315661
-6.17831e-14
0.00315661
-6.60534e-14
0.00315661
-7.02259e-14
0.00315661
-7.43146e-14
0.00315661
-7.83088e-14
0.00315661
-8.22104e-14
0.00315661
-8.60213e-14
0.00315661
-8.97288e-14
0.00315661
-9.33471e-14
0.00315661
-9.68775e-14
0.00315661
-1.00311e-13
0.00315661
-1.03652e-13
0.00315661
-1.06896e-13
0.00315661
-1.10066e-13
0.00315661
-1.13153e-13
0.00315661
-1.16161e-13
0.00315661
-1.19098e-13
0.00315661
-1.21958e-13
0.00315661
-1.24769e-13
0.00315661
-1.27531e-13
0.00315661
-1.30257e-13
0.00315661
-1.32963e-13
0.00315661
-1.35642e-13
0.00315661
-1.38338e-13
0.00315661
-1.4106e-13
0.00315661
-1.43827e-13
0.00315661
-1.4667e-13
0.00315661
-1.4961e-13
0.00315661
-1.52692e-13
0.00315661
-1.55945e-13
0.00315661
-1.59406e-13
0.00315661
-1.63126e-13
0.00315661
-1.6715e-13
0.00315661
-1.71542e-13
0.00315661
-1.76367e-13
0.00315661
-1.81689e-13
0.00315661
-1.87585e-13
0.00315661
-1.94139e-13
0.00315661
-2.01455e-13
0.00315661
-2.09624e-13
0.00315661
-2.18775e-13
0.00315661
-2.29025e-13
0.00315661
-2.40499e-13
0.00315661
-2.53364e-13
0.00315661
-2.67774e-13
0.00315661
-2.8391e-13
0.00315661
-3.01955e-13
0.00315661
-3.22108e-13
0.00315661
-3.4462e-13
0.00315661