/*--------------------------------*- C++ -*----------------------------------*\
| =========                 |                                                 |
| \\      /  F ield         | OpenFOAM: The Open Source CFD Toolbox           |
|  \\    /   O peration     | Version:  2112                                  |
|   \\  /    A nd           | Website:  www.openfoam.com                      |
|    \\/     M anipulation  |                                                 |
\*---------------------------------------------------------------------------*/
FoamFile
{
    version     2.0;
    format      ascii;
    arch        "LSB;label=32;scalar=64";
    class       volVectorField;
    location    "5.94";
    object      U;
}
// * * * * * * * * * * * * * * * * * * * * * * * * * * * * * * * * * * * * * //

dimensions      [0 1 -1 0 0 0 0];

internalField   nonuniform List<vector> 
25600
(
(0.0376962 2.49933e-11 0)
(0.0376962 -4.87994e-11 0)
(0.0376962 -8.08607e-11 0)
(0.0376962 -7.6793e-11 0)
(0.0376963 -6.36687e-11 0)
(0.0376963 -5.23975e-11 0)
(0.0376963 -4.32339e-11 0)
(0.0376963 -3.58527e-11 0)
(0.0376963 -2.99375e-11 0)
(0.0376963 -2.50888e-11 0)
(0.0376963 -2.10556e-11 0)
(0.0376963 -1.76867e-11 0)
(0.0376963 -1.48771e-11 0)
(0.0376963 -1.25388e-11 0)
(0.0376963 -1.05918e-11 0)
(0.0376963 -8.96241e-12 0)
(0.0376963 -7.58723e-12 0)
(0.0376963 -6.41317e-12 0)
(0.0376963 -5.39892e-12 0)
(0.0376963 -4.51274e-12 0)
(0.0376963 -3.7314e-12 0)
(0.0376963 -3.03737e-12 0)
(0.0376963 -2.4177e-12 0)
(0.0376963 -1.86202e-12 0)
(0.0376963 -1.36172e-12 0)
(0.0376963 -9.09109e-13 0)
(0.0376963 -5.05123e-13 0)
(0.0376963 -1.68003e-13 0)
(0.0376963 1.42719e-13 0)
(0.0376963 4.40529e-13 0)
(0.0376963 7.1222e-13 0)
(0.0376963 9.56289e-13 0)
(0.0376963 1.17604e-12 0)
(0.0376963 1.37455e-12 0)
(0.0376963 1.55404e-12 0)
(0.0376963 1.71631e-12 0)
(0.0376963 1.86299e-12 0)
(0.0376963 1.99545e-12 0)
(0.0376963 2.11485e-12 0)
(0.0376963 2.22231e-12 0)
(0.0376963 2.31868e-12 0)
(0.0376963 2.40475e-12 0)
(0.0376963 2.48127e-12 0)
(0.0376963 2.54889e-12 0)
(0.0376963 2.6082e-12 0)
(0.0376963 2.65973e-12 0)
(0.0376963 2.70396e-12 0)
(0.0376963 2.74134e-12 0)
(0.0376963 2.77227e-12 0)
(0.0376963 2.79717e-12 0)
(0.0376963 2.81639e-12 0)
(0.0376963 2.83025e-12 0)
(0.0376963 2.83902e-12 0)
(0.0376963 2.84308e-12 0)
(0.0376963 2.84273e-12 0)
(0.0376963 2.83799e-12 0)
(0.0376963 2.82939e-12 0)
(0.0376963 2.81708e-12 0)
(0.0376963 2.80117e-12 0)
(0.0376963 2.78198e-12 0)
(0.0376963 2.75958e-12 0)
(0.0376963 2.7344e-12 0)
(0.0376963 2.70636e-12 0)
(0.0376963 2.67574e-12 0)
(0.0376963 2.64279e-12 0)
(0.0376963 2.60739e-12 0)
(0.0376963 2.57001e-12 0)
(0.0376963 2.53063e-12 0)
(0.0376963 2.4894e-12 0)
(0.0376963 2.44646e-12 0)
(0.0376963 2.40194e-12 0)
(0.0376963 2.356e-12 0)
(0.0376963 2.30872e-12 0)
(0.0376963 2.26025e-12 0)
(0.0376963 2.21069e-12 0)
(0.0376963 2.16012e-12 0)
(0.0376963 2.10871e-12 0)
(0.0376963 2.05653e-12 0)
(0.0376963 2.00371e-12 0)
(0.0376963 1.95039e-12 0)
(0.0376963 1.89644e-12 0)
(0.0376963 1.84225e-12 0)
(0.0376963 1.78786e-12 0)
(0.0376963 1.73321e-12 0)
(0.0376963 1.67853e-12 0)
(0.0376963 1.62387e-12 0)
(0.0376963 1.56922e-12 0)
(0.0376963 1.51484e-12 0)
(0.0376963 1.46081e-12 0)
(0.0376963 1.40702e-12 0)
(0.0376963 1.3536e-12 0)
(0.0376963 1.30074e-12 0)
(0.0376963 1.24853e-12 0)
(0.0376963 1.1969e-12 0)
(0.0376963 1.14588e-12 0)
(0.0376963 1.09568e-12 0)
(0.0376963 1.04642e-12 0)
(0.0376963 9.97896e-13 0)
(0.0376963 9.50448e-13 0)
(0.0376963 9.0396e-13 0)
(0.0376963 8.58306e-13 0)
(0.0376963 8.13968e-13 0)
(0.0376963 7.70702e-13 0)
(0.0376963 7.28571e-13 0)
(0.0376963 6.87766e-13 0)
(0.0376963 6.47986e-13 0)
(0.0376963 6.09457e-13 0)
(0.0376963 5.72386e-13 0)
(0.0376963 5.36595e-13 0)
(0.0376963 5.02062e-13 0)
(0.0376963 4.68853e-13 0)
(0.0376963 4.3686e-13 0)
(0.0376963 4.06426e-13 0)
(0.0376963 3.77425e-13 0)
(0.0376963 3.49539e-13 0)
(0.0376963 3.23035e-13 0)
(0.0376963 2.98014e-13 0)
(0.0376963 2.74357e-13 0)
(0.0376963 2.51888e-13 0)
(0.0376963 2.30726e-13 0)
(0.0376963 2.11038e-13 0)
(0.0376963 1.92494e-13 0)
(0.0376963 1.75203e-13 0)
(0.0376963 1.5937e-13 0)
(0.0376963 1.44587e-13 0)
(0.0376963 1.30854e-13 0)
(0.0376963 1.18333e-13 0)
(0.0376963 1.07144e-13 0)
(0.0376963 9.69269e-14 0)
(0.0376963 8.76589e-14 0)
(0.0376963 7.94744e-14 0)
(0.0376963 7.22097e-14 0)
(0.0376963 6.6011e-14 0)
(0.0376963 6.06999e-14 0)
(0.0376963 5.61341e-14 0)
(0.0376963 5.24233e-14 0)
(0.0376963 4.94068e-14 0)
(0.0376963 4.72502e-14 0)
(0.0376963 4.58888e-14 0)
(0.0376963 4.49102e-14 0)
(0.0376963 4.45033e-14 0)
(0.0376963 4.4855e-14 0)
(0.0376963 4.58116e-14 0)
(0.0376963 4.69607e-14 0)
(0.0376963 4.87186e-14 0)
(0.0376963 5.09008e-14 0)
(0.0376963 5.318e-14 0)
(0.0376963 5.5914e-14 0)
(0.0376963 5.91023e-14 0)
(0.0376963 6.23941e-14 0)
(0.0376963 6.58046e-14 0)
(0.0376963 6.93742e-14 0)
(0.0376963 7.32246e-14 0)
(0.0376963 7.7183e-14 0)
(0.0376963 8.10508e-14 0)
(0.0376963 8.50184e-14 0)
(0.0376963 8.89236e-14 0)
(0.0376963 9.30456e-14 0)
(0.0376963 9.70512e-14 0)
(0.0376963 1.00846e-13 0)
(0.0376963 1.04735e-13 0)
(0.0376963 1.08307e-13 0)
(0.0376963 1.1191e-13 0)
(0.0376963 1.15524e-13 0)
(0.0376963 1.18578e-13 0)
(0.0376963 1.21705e-13 0)
(0.0376963 1.24762e-13 0)
(0.0376963 1.27424e-13 0)
(0.0376963 1.29958e-13 0)
(0.0376963 1.32278e-13 0)
(0.0376963 1.34359e-13 0)
(0.0376963 1.36138e-13 0)
(0.0376963 1.37976e-13 0)
(0.0376963 1.39231e-13 0)
(0.0376963 1.40225e-13 0)
(0.0376963 1.41396e-13 0)
(0.0376963 1.41853e-13 0)
(0.0376963 1.4227e-13 0)
(0.0376963 1.426e-13 0)
(0.0376963 1.42522e-13 0)
(0.0376963 1.42136e-13 0)
(0.0376963 1.41454e-13 0)
(0.0376963 1.40798e-13 0)
(0.0376963 1.39894e-13 0)
(0.0376963 1.38623e-13 0)
(0.0376963 1.3723e-13 0)
(0.0376963 1.35437e-13 0)
(0.0376963 1.33624e-13 0)
(0.0376963 1.31774e-13 0)
(0.0376963 1.29329e-13 0)
(0.0376963 1.26919e-13 0)
(0.0376963 1.24467e-13 0)
(0.0376963 1.21662e-13 0)
(0.0376963 1.18762e-13 0)
(0.0376963 1.15696e-13 0)
(0.0376963 1.12457e-13 0)
(0.0376963 1.09043e-13 0)
(0.0376963 1.05786e-13 0)
(0.0376963 1.02058e-13 0)
(0.0376963 9.81825e-14 0)
(0.0376963 9.4631e-14 0)
(0.0376963 9.05336e-14 0)
(0.0376963 8.6498e-14 0)
(0.0376963 8.25843e-14 0)
(0.0376963 7.82785e-14 0)
(0.0376963 7.39552e-14 0)
(0.0376963 6.96013e-14 0)
(0.0376963 6.52852e-14 0)
(0.0376963 6.08762e-14 0)
(0.0376963 5.62756e-14 0)
(0.0376963 5.17688e-14 0)
(0.0376963 4.70465e-14 0)
(0.0376963 4.23008e-14 0)
(0.0376963 3.7588e-14 0)
(0.0376963 3.26751e-14 0)
(0.0376963 2.78677e-14 0)
(0.0376963 2.29455e-14 0)
(0.0376963 1.79211e-14 0)
(0.0376963 1.28343e-14 0)
(0.0376963 7.90206e-15 0)
(0.0376963 3.18748e-15 0)
(0.0376963 -2.00733e-15 0)
(0.0376963 -6.72506e-15 0)
(0.0376963 -1.18692e-14 0)
(0.0376963 -1.7077e-14 0)
(0.0376963 -2.16859e-14 0)
(0.0376963 -2.70052e-14 0)
(0.0376963 -3.20473e-14 0)
(0.0376963 -3.71119e-14 0)
(0.0376963 -4.25189e-14 0)
(0.0376963 -4.73433e-14 0)
(0.0376963 -5.26196e-14 0)
(0.0376963 -5.8068e-14 0)
(0.0376963 -6.31421e-14 0)
(0.0376963 -6.85046e-14 0)
(0.0376963 -7.37786e-14 0)
(0.0376963 -7.92388e-14 0)
(0.0376963 -8.47131e-14 0)
(0.0376963 -9.01428e-14 0)
(0.0376963 -9.57222e-14 0)
(0.0376963 -1.01165e-13 0)
(0.0376963 -1.06704e-13 0)
(0.0376963 -1.1236e-13 0)
(0.0376963 -1.18225e-13 0)
(0.0376963 -1.23984e-13 0)
(0.0376963 -1.29557e-13 0)
(0.0376963 -1.3568e-13 0)
(0.0376963 -1.41336e-13 0)
(0.0376963 -1.47441e-13 0)
(0.0376963 -1.53673e-13 0)
(0.0376963 -1.59327e-13 0)
(0.0376963 -1.6575e-13 0)
(0.0376963 -1.7191e-13 0)
(0.0376963 -1.78119e-13 0)
(0.0376963 -1.8473e-13 0)
(0.0376963 -1.90804e-13 0)
(0.0376963 -1.97356e-13 0)
(0.0376963 -2.04125e-13 0)
(0.0376963 -2.10578e-13 0)
(0.0376963 -2.1737e-13 0)
(0.0376963 -2.24123e-13 0)
(0.0376963 -2.31111e-13 0)
(0.0376963 -2.38243e-13 0)
(0.0376963 -2.45395e-13 0)
(0.0376963 -2.52804e-13 0)
(0.0376963 -2.60267e-13 0)
(0.0376963 -2.67973e-13 0)
(0.0376963 -2.75981e-13 0)
(0.0376963 -2.84419e-13 0)
(0.0376963 -2.9322e-13 0)
(0.0376963 -3.02254e-13 0)
(0.0376963 -3.12051e-13 0)
(0.0376963 -3.22091e-13 0)
(0.0376963 -3.33391e-13 0)
(0.0376963 -3.45621e-13 0)
(0.0376963 -3.58363e-13 0)
(0.0376963 -3.7291e-13 0)
(0.0376963 -3.88804e-13 0)
(0.0376963 -4.06578e-13 0)
(0.0376963 -4.26556e-13 0)
(0.0376963 -4.48388e-13 0)
(0.0376963 -4.73537e-13 0)
(0.0376963 -5.01908e-13 0)
(0.0376963 -5.33379e-13 0)
(0.0376963 -5.69335e-13 0)
(0.0376963 -6.09721e-13 0)
(0.0376963 -6.55462e-13 0)
(0.0376963 -7.06948e-13 0)
(0.0376963 -7.64859e-13 0)
(0.0376963 -8.29579e-13 0)
(0.0376963 -9.02026e-13 0)
(0.0376963 -9.83375e-13 0)
(0.0376963 -1.07388e-12 0)
(0.0376963 -1.17456e-12 0)
(0.0376963 -1.28649e-12 0)
(0.0376963 -1.41027e-12 0)
(0.0376963 -1.54747e-12 0)
(0.0376963 -1.69835e-12 0)
(0.0376963 -1.86492e-12 0)
(0.0376963 -2.04734e-12 0)
(0.0376963 -2.24546e-12 0)
(0.0376963 -2.4597e-12 0)
(0.0376963 -2.68748e-12 0)
(0.0376963 -2.92405e-12 0)
(0.0376963 -3.16019e-12 0)
(0.0376963 -3.37747e-12 0)
(0.0376963 -3.54698e-12 0)
(0.0376963 -3.62074e-12 0)
(0.0376963 -3.53749e-12 0)
(0.0376963 -3.22551e-12 0)
(0.0376963 -2.58939e-12 0)
(0.0376963 -1.17844e-12 0)
(0.0376963 2.46614e-12 0)
(0.0376963 9.01441e-12 0)
(0.0376963 2.00794e-11 0)
(0.0376963 3.79155e-11 0)
(0.0376963 6.48001e-11 0)
(0.0376963 9.86931e-11 0)
(0.0376963 1.1968e-10 0)
(0.0376962 9.59923e-11 0)
(0.111201 2.86342e-10 0)
(0.111201 -1.2494e-10 0)
(0.111201 -4.01548e-10 0)
(0.111201 -5.00702e-10 0)
(0.111201 -5.00603e-10 0)
(0.111201 -4.6688e-10 0)
(0.111201 -4.23424e-10 0)
(0.111201 -3.78041e-10 0)
(0.111201 -3.34699e-10 0)
(0.111201 -2.94768e-10 0)
(0.111201 -2.58587e-10 0)
(0.111201 -2.26123e-10 0)
(0.111201 -1.97185e-10 0)
(0.111201 -1.71492e-10 0)
(0.111201 -1.48712e-10 0)
(0.111201 -1.28507e-10 0)
(0.111201 -1.10548e-10 0)
(0.111201 -9.4542e-11 0)
(0.111201 -8.02316e-11 0)
(0.111201 -6.74001e-11 0)
(0.111201 -5.58656e-11 0)
(0.111201 -4.54766e-11 0)
(0.111201 -3.61055e-11 0)
(0.111201 -2.76436e-11 0)
(0.111201 -1.99969e-11 0)
(0.111201 -1.3083e-11 0)
(0.111201 -6.83277e-12 0)
(0.111201 -1.19865e-12 0)
(0.111201 3.87142e-12 0)
(0.111201 8.47206e-12 0)
(0.111201 1.26336e-11 0)
(0.111201 1.63897e-11 0)
(0.111201 1.97754e-11 0)
(0.111201 2.28236e-11 0)
(0.111201 2.55637e-11 0)
(0.111201 2.80218e-11 0)
(0.111201 3.02221e-11 0)
(0.111201 3.21855e-11 0)
(0.111201 3.39313e-11 0)
(0.111201 3.54769e-11 0)
(0.111201 3.68378e-11 0)
(0.111201 3.8028e-11 0)
(0.111201 3.90603e-11 0)
(0.111201 3.99465e-11 0)
(0.111201 4.06972e-11 0)
(0.111201 4.13221e-11 0)
(0.111201 4.18301e-11 0)
(0.111201 4.22293e-11 0)
(0.111201 4.25274e-11 0)
(0.111201 4.27313e-11 0)
(0.111201 4.28474e-11 0)
(0.111201 4.28819e-11 0)
(0.111201 4.284e-11 0)
(0.111201 4.27271e-11 0)
(0.111201 4.25481e-11 0)
(0.111201 4.23071e-11 0)
(0.111201 4.20088e-11 0)
(0.111201 4.16571e-11 0)
(0.111201 4.12555e-11 0)
(0.111201 4.08077e-11 0)
(0.111201 4.03169e-11 0)
(0.111201 3.97864e-11 0)
(0.111201 3.92191e-11 0)
(0.111201 3.86179e-11 0)
(0.111201 3.79856e-11 0)
(0.111201 3.73244e-11 0)
(0.111201 3.66372e-11 0)
(0.111201 3.59262e-11 0)
(0.111201 3.51936e-11 0)
(0.111201 3.44417e-11 0)
(0.111201 3.36725e-11 0)
(0.111201 3.28881e-11 0)
(0.111201 3.20905e-11 0)
(0.111201 3.12816e-11 0)
(0.111201 3.0463e-11 0)
(0.111201 2.96365e-11 0)
(0.111201 2.8804e-11 0)
(0.111201 2.7967e-11 0)
(0.111201 2.7127e-11 0)
(0.111201 2.62857e-11 0)
(0.111201 2.54442e-11 0)
(0.111201 2.46044e-11 0)
(0.111201 2.37675e-11 0)
(0.111201 2.29348e-11 0)
(0.111201 2.21076e-11 0)
(0.111201 2.1287e-11 0)
(0.111201 2.04742e-11 0)
(0.111201 1.96705e-11 0)
(0.111201 1.8877e-11 0)
(0.111201 1.80943e-11 0)
(0.111201 1.73235e-11 0)
(0.111201 1.65659e-11 0)
(0.111201 1.58221e-11 0)
(0.111201 1.50929e-11 0)
(0.111201 1.4379e-11 0)
(0.111201 1.36811e-11 0)
(0.111201 1.30001e-11 0)
(0.111201 1.23364e-11 0)
(0.111201 1.16906e-11 0)
(0.111201 1.10631e-11 0)
(0.111201 1.04543e-11 0)
(0.111201 9.86492e-12 0)
(0.111201 9.29508e-12 0)
(0.111201 8.74509e-12 0)
(0.111201 8.21531e-12 0)
(0.111201 7.70546e-12 0)
(0.111201 7.21596e-12 0)
(0.111201 6.74725e-12 0)
(0.111201 6.29907e-12 0)
(0.111201 5.87123e-12 0)
(0.111201 5.46382e-12 0)
(0.111201 5.07657e-12 0)
(0.111201 4.70978e-12 0)
(0.111201 4.36314e-12 0)
(0.111201 4.03598e-12 0)
(0.111201 3.72837e-12 0)
(0.111201 3.44011e-12 0)
(0.111201 3.17078e-12 0)
(0.111201 2.91982e-12 0)
(0.111201 2.68697e-12 0)
(0.111201 2.47194e-12 0)
(0.111201 2.27393e-12 0)
(0.111201 2.0928e-12 0)
(0.111201 1.92817e-12 0)
(0.111201 1.77894e-12 0)
(0.111201 1.64467e-12 0)
(0.111201 1.52505e-12 0)
(0.111201 1.41966e-12 0)
(0.111201 1.32757e-12 0)
(0.111201 1.2481e-12 0)
(0.111201 1.18092e-12 0)
(0.111201 1.12521e-12 0)
(0.111201 1.08055e-12 0)
(0.111201 1.04615e-12 0)
(0.111201 1.02136e-12 0)
(0.111201 1.00557e-12 0)
(0.111201 9.98002e-13 0)
(0.111201 9.9856e-13 0)
(0.111201 1.00637e-12 0)
(0.111201 1.02029e-12 0)
(0.111201 1.04044e-12 0)
(0.111201 1.06606e-12 0)
(0.111201 1.09649e-12 0)
(0.111201 1.13115e-12 0)
(0.111201 1.16956e-12 0)
(0.111201 1.21109e-12 0)
(0.111201 1.25505e-12 0)
(0.111201 1.30167e-12 0)
(0.111201 1.34999e-12 0)
(0.111201 1.39926e-12 0)
(0.111201 1.44947e-12 0)
(0.111201 1.50004e-12 0)
(0.111201 1.55082e-12 0)
(0.111201 1.60134e-12 0)
(0.111201 1.65091e-12 0)
(0.111201 1.69951e-12 0)
(0.111201 1.74685e-12 0)
(0.111201 1.79281e-12 0)
(0.111201 1.83693e-12 0)
(0.111201 1.87874e-12 0)
(0.111201 1.91839e-12 0)
(0.111201 1.95534e-12 0)
(0.111201 1.98984e-12 0)
(0.111201 2.02161e-12 0)
(0.111201 2.04992e-12 0)
(0.111201 2.07552e-12 0)
(0.111201 2.09807e-12 0)
(0.111201 2.11716e-12 0)
(0.111201 2.13308e-12 0)
(0.111201 2.14559e-12 0)
(0.111201 2.15464e-12 0)
(0.111201 2.16015e-12 0)
(0.111201 2.16268e-12 0)
(0.111201 2.16138e-12 0)
(0.111201 2.15663e-12 0)
(0.111201 2.14909e-12 0)
(0.111201 2.13763e-12 0)
(0.111201 2.12319e-12 0)
(0.111201 2.10583e-12 0)
(0.111201 2.08509e-12 0)
(0.111201 2.06124e-12 0)
(0.111201 2.03432e-12 0)
(0.111201 2.00487e-12 0)
(0.111201 1.97276e-12 0)
(0.111201 1.93781e-12 0)
(0.111201 1.90035e-12 0)
(0.111201 1.86019e-12 0)
(0.111201 1.81808e-12 0)
(0.111201 1.7739e-12 0)
(0.111201 1.72708e-12 0)
(0.111201 1.67865e-12 0)
(0.111201 1.62848e-12 0)
(0.111201 1.57644e-12 0)
(0.111201 1.5229e-12 0)
(0.111201 1.46776e-12 0)
(0.111201 1.41113e-12 0)
(0.111201 1.35317e-12 0)
(0.111201 1.29448e-12 0)
(0.111201 1.23431e-12 0)
(0.111201 1.17303e-12 0)
(0.111201 1.11151e-12 0)
(0.111201 1.0487e-12 0)
(0.111201 9.85357e-13 0)
(0.111201 9.2171e-13 0)
(0.111201 8.57256e-13 0)
(0.111201 7.92457e-13 0)
(0.111201 7.27358e-13 0)
(0.111201 6.62161e-13 0)
(0.111201 5.96675e-13 0)
(0.111201 5.30908e-13 0)
(0.111201 4.65303e-13 0)
(0.111201 3.9941e-13 0)
(0.111201 3.33679e-13 0)
(0.111201 2.68101e-13 0)
(0.111201 2.02486e-13 0)
(0.111201 1.37365e-13 0)
(0.111201 7.22999e-14 0)
(0.111201 7.40144e-15 0)
(0.111201 -5.72552e-14 0)
(0.111201 -1.21363e-13 0)
(0.111201 -1.84709e-13 0)
(0.111201 -2.48251e-13 0)
(0.111201 -3.10867e-13 0)
(0.111201 -3.73558e-13 0)
(0.111201 -4.35854e-13 0)
(0.111201 -4.9679e-13 0)
(0.111201 -5.58148e-13 0)
(0.111201 -6.18772e-13 0)
(0.111201 -6.78896e-13 0)
(0.111201 -7.3886e-13 0)
(0.111201 -7.97502e-13 0)
(0.111201 -8.56201e-13 0)
(0.111201 -9.14567e-13 0)
(0.111201 -9.71984e-13 0)
(0.111201 -1.0292e-12 0)
(0.111201 -1.0857e-12 0)
(0.111201 -1.14195e-12 0)
(0.111201 -1.19772e-12 0)
(0.111201 -1.25296e-12 0)
(0.111201 -1.30777e-12 0)
(0.111201 -1.36184e-12 0)
(0.111201 -1.41573e-12 0)
(0.111201 -1.46933e-12 0)
(0.111201 -1.52284e-12 0)
(0.111201 -1.57588e-12 0)
(0.111201 -1.6282e-12 0)
(0.111201 -1.68104e-12 0)
(0.111201 -1.73317e-12 0)
(0.111201 -1.78578e-12 0)
(0.111201 -1.83859e-12 0)
(0.111201 -1.89062e-12 0)
(0.111201 -1.94393e-12 0)
(0.111201 -1.9974e-12 0)
(0.111201 -2.0515e-12 0)
(0.111201 -2.10684e-12 0)
(0.111201 -2.16245e-12 0)
(0.111201 -2.21991e-12 0)
(0.111201 -2.27925e-12 0)
(0.111201 -2.34001e-12 0)
(0.111201 -2.40339e-12 0)
(0.111201 -2.46927e-12 0)
(0.111201 -2.53864e-12 0)
(0.111201 -2.61192e-12 0)
(0.111201 -2.68947e-12 0)
(0.111201 -2.77217e-12 0)
(0.111201 -2.86056e-12 0)
(0.111201 -2.95586e-12 0)
(0.111201 -3.05898e-12 0)
(0.111201 -3.17106e-12 0)
(0.111201 -3.29328e-12 0)
(0.111201 -3.42627e-12 0)
(0.111201 -3.5731e-12 0)
(0.111201 -3.73455e-12 0)
(0.111201 -3.91277e-12 0)
(0.111201 -4.10995e-12 0)
(0.111201 -4.32755e-12 0)
(0.111201 -4.56976e-12 0)
(0.111201 -4.83856e-12 0)
(0.111201 -5.13737e-12 0)
(0.111201 -5.46986e-12 0)
(0.111201 -5.83899e-12 0)
(0.111201 -6.24965e-12 0)
(0.111201 -6.70657e-12 0)
(0.111201 -7.21431e-12 0)
(0.111201 -7.77788e-12 0)
(0.111201 -8.40261e-12 0)
(0.111201 -9.09503e-12 0)
(0.111201 -9.86099e-12 0)
(0.111201 -1.07068e-11 0)
(0.111201 -1.16389e-11 0)
(0.111201 -1.26639e-11 0)
(0.111201 -1.37895e-11 0)
(0.111201 -1.50215e-11 0)
(0.111201 -1.63669e-11 0)
(0.111201 -1.78318e-11 0)
(0.111201 -1.94206e-11 0)
(0.111201 -2.1138e-11 0)
(0.111201 -2.29843e-11 0)
(0.111201 -2.49558e-11 0)
(0.111201 -2.70423e-11 0)
(0.111201 -2.9221e-11 0)
(0.111201 -3.14551e-11 0)
(0.111201 -3.36789e-11 0)
(0.111201 -3.57884e-11 0)
(0.111201 -3.76198e-11 0)
(0.111201 -3.89183e-11 0)
(0.111201 -3.92955e-11 0)
(0.111201 -3.81601e-11 0)
(0.111201 -3.46202e-11 0)
(0.111201 -2.73245e-11 0)
(0.111201 -1.4204e-11 0)
(0.111201 8.07257e-12 0)
(0.111201 4.49983e-11 0)
(0.111201 1.03144e-10 0)
(0.111201 1.91066e-10 0)
(0.111201 3.17337e-10 0)
(0.111201 4.82776e-10 0)
(0.111201 6.58362e-10 0)
(0.111201 7.51119e-10 0)
(0.111201 6.33982e-10 0)
(0.182814 6.85217e-10 0)
(0.182814 -1.07972e-10 0)
(0.182814 -7.15631e-10 0)
(0.182814 -1.00978e-09 0)
(0.182814 -1.08865e-09 0)
(0.182814 -1.07013e-09 0)
(0.182814 -1.00815e-09 0)
(0.182814 -9.2671e-10 0)
(0.182814 -8.39448e-10 0)
(0.182814 -7.53091e-10 0)
(0.182814 -6.70831e-10 0)
(0.182814 -5.94126e-10 0)
(0.182814 -5.23533e-10 0)
(0.182814 -4.59106e-10 0)
(0.182814 -4.00616e-10 0)
(0.182814 -3.47681e-10 0)
(0.182814 -2.99852e-10 0)
(0.182814 -2.56664e-10 0)
(0.182814 -2.17669e-10 0)
(0.182814 -1.82449e-10 0)
(0.182814 -1.50626e-10 0)
(0.182814 -1.21861e-10 0)
(0.182814 -9.58522e-11 0)
(0.182814 -7.23327e-11 0)
(0.182814 -5.10634e-11 0)
(0.182814 -3.18311e-11 0)
(0.182814 -1.44431e-11 0)
(0.182814 1.27754e-12 0)
(0.182814 1.54539e-11 0)
(0.182814 2.82461e-11 0)
(0.182814 3.97831e-11 0)
(0.182814 5.01748e-11 0)
(0.182814 5.95209e-11 0)
(0.182814 6.79121e-11 0)
(0.182814 7.54304e-11 0)
(0.182814 8.21501e-11 0)
(0.182814 8.81383e-11 0)
(0.182814 9.34557e-11 0)
(0.182814 9.8157e-11 0)
(0.182814 1.02292e-10 0)
(0.182814 1.05905e-10 0)
(0.182814 1.09038e-10 0)
(0.182814 1.11728e-10 0)
(0.182814 1.14007e-10 0)
(0.182814 1.15908e-10 0)
(0.182814 1.17458e-10 0)
(0.182814 1.18683e-10 0)
(0.182814 1.19607e-10 0)
(0.182814 1.2025e-10 0)
(0.182814 1.20634e-10 0)
(0.182814 1.20777e-10 0)
(0.182814 1.20695e-10 0)
(0.182814 1.20405e-10 0)
(0.182814 1.19921e-10 0)
(0.182814 1.19257e-10 0)
(0.182814 1.18426e-10 0)
(0.182814 1.17439e-10 0)
(0.182814 1.16308e-10 0)
(0.182814 1.15043e-10 0)
(0.182814 1.13654e-10 0)
(0.182814 1.12151e-10 0)
(0.182814 1.10542e-10 0)
(0.182814 1.08836e-10 0)
(0.182814 1.0704e-10 0)
(0.182814 1.05163e-10 0)
(0.182814 1.03211e-10 0)
(0.182814 1.01191e-10 0)
(0.182814 9.91109e-11 0)
(0.182814 9.69756e-11 0)
(0.182814 9.47916e-11 0)
(0.182814 9.25648e-11 0)
(0.182814 9.03012e-11 0)
(0.182814 8.80059e-11 0)
(0.182814 8.56842e-11 0)
(0.182814 8.3341e-11 0)
(0.182814 8.09814e-11 0)
(0.182814 7.86098e-11 0)
(0.182814 7.6231e-11 0)
(0.182814 7.38491e-11 0)
(0.182814 7.14685e-11 0)
(0.182814 6.90932e-11 0)
(0.182814 6.67268e-11 0)
(0.182814 6.43735e-11 0)
(0.182814 6.2037e-11 0)
(0.182814 5.97203e-11 0)
(0.182814 5.74268e-11 0)
(0.182814 5.51598e-11 0)
(0.182814 5.29225e-11 0)
(0.182814 5.07173e-11 0)
(0.182814 4.85469e-11 0)
(0.182814 4.6414e-11 0)
(0.182814 4.43213e-11 0)
(0.182814 4.22707e-11 0)
(0.182814 4.02645e-11 0)
(0.182814 3.83044e-11 0)
(0.182814 3.63921e-11 0)
(0.182814 3.45298e-11 0)
(0.182814 3.27186e-11 0)
(0.182814 3.09598e-11 0)
(0.182814 2.92548e-11 0)
(0.182814 2.76043e-11 0)
(0.182814 2.60097e-11 0)
(0.182814 2.44715e-11 0)
(0.182814 2.29904e-11 0)
(0.182814 2.15667e-11 0)
(0.182814 2.02006e-11 0)
(0.182814 1.88922e-11 0)
(0.182814 1.76422e-11 0)
(0.182814 1.64504e-11 0)
(0.182814 1.53158e-11 0)
(0.182814 1.42386e-11 0)
(0.182814 1.32182e-11 0)
(0.182814 1.22542e-11 0)
(0.182814 1.13459e-11 0)
(0.182814 1.04924e-11 0)
(0.182814 9.69285e-12 0)
(0.182814 8.94607e-12 0)
(0.182814 8.25124e-12 0)
(0.182814 7.60726e-12 0)
(0.182814 7.01266e-12 0)
(0.182814 6.46593e-12 0)
(0.182814 5.96578e-12 0)
(0.182814 5.51135e-12 0)
(0.182814 5.10068e-12 0)
(0.182814 4.73169e-12 0)
(0.182814 4.4032e-12 0)
(0.182814 4.11372e-12 0)
(0.182814 3.86148e-12 0)
(0.182814 3.64452e-12 0)
(0.182814 3.46113e-12 0)
(0.182814 3.3099e-12 0)
(0.182814 3.18871e-12 0)
(0.182814 3.0959e-12 0)
(0.182814 3.02983e-12 0)
(0.182814 2.98837e-12 0)
(0.182814 2.97002e-12 0)
(0.182814 2.97294e-12 0)
(0.182814 2.99585e-12 0)
(0.182814 3.03673e-12 0)
(0.182814 3.09349e-12 0)
(0.182814 3.16498e-12 0)
(0.182814 3.24955e-12 0)
(0.182814 3.34609e-12 0)
(0.182814 3.45263e-12 0)
(0.182814 3.56727e-12 0)
(0.182814 3.6891e-12 0)
(0.182814 3.81659e-12 0)
(0.182814 3.94889e-12 0)
(0.182814 4.08458e-12 0)
(0.182814 4.22197e-12 0)
(0.182814 4.3601e-12 0)
(0.182814 4.49822e-12 0)
(0.182814 4.63544e-12 0)
(0.182814 4.77019e-12 0)
(0.182814 4.90171e-12 0)
(0.182814 5.02976e-12 0)
(0.182814 5.15321e-12 0)
(0.182814 5.27109e-12 0)
(0.182814 5.38347e-12 0)
(0.182814 5.48908e-12 0)
(0.182814 5.58735e-12 0)
(0.182814 5.6782e-12 0)
(0.182814 5.76137e-12 0)
(0.182814 5.83573e-12 0)
(0.182814 5.90137e-12 0)
(0.182814 5.95869e-12 0)
(0.182814 6.00638e-12 0)
(0.182814 6.04511e-12 0)
(0.182814 6.07468e-12 0)
(0.182814 6.09453e-12 0)
(0.182814 6.1047e-12 0)
(0.182814 6.10521e-12 0)
(0.182814 6.09678e-12 0)
(0.182814 6.07888e-12 0)
(0.182814 6.05154e-12 0)
(0.182814 6.0153e-12 0)
(0.182814 5.96967e-12 0)
(0.182814 5.91553e-12 0)
(0.182814 5.85317e-12 0)
(0.182814 5.78194e-12 0)
(0.182814 5.70278e-12 0)
(0.182814 5.61584e-12 0)
(0.182814 5.52132e-12 0)
(0.182814 5.41978e-12 0)
(0.182814 5.31128e-12 0)
(0.182814 5.19601e-12 0)
(0.182814 5.07426e-12 0)
(0.182814 4.94711e-12 0)
(0.182814 4.81394e-12 0)
(0.182814 4.67524e-12 0)
(0.182814 4.53222e-12 0)
(0.182814 4.38403e-12 0)
(0.182814 4.23184e-12 0)
(0.182814 4.07591e-12 0)
(0.182814 3.91605e-12 0)
(0.182814 3.75265e-12 0)
(0.182814 3.58605e-12 0)
(0.182814 3.41724e-12 0)
(0.182814 3.24601e-12 0)
(0.182814 3.07206e-12 0)
(0.182814 2.89668e-12 0)
(0.182814 2.71964e-12 0)
(0.182814 2.54101e-12 0)
(0.182814 2.3615e-12 0)
(0.182814 2.18125e-12 0)
(0.182814 2.00042e-12 0)
(0.182814 1.81897e-12 0)
(0.182814 1.63753e-12 0)
(0.182814 1.45572e-12 0)
(0.182814 1.27422e-12 0)
(0.182814 1.09321e-12 0)
(0.182814 9.12275e-13 0)
(0.182814 7.32582e-13 0)
(0.182814 5.53165e-13 0)
(0.182814 3.74783e-13 0)
(0.182814 1.98078e-13 0)
(0.182814 2.17828e-14 0)
(0.182814 -1.53018e-13 0)
(0.182814 -3.26497e-13 0)
(0.182814 -4.98764e-13 0)
(0.182814 -6.68752e-13 0)
(0.182814 -8.37477e-13 0)
(0.182814 -1.0048e-12 0)
(0.182814 -1.17049e-12 0)
(0.182814 -1.3345e-12 0)
(0.182814 -1.49593e-12 0)
(0.182814 -1.65602e-12 0)
(0.182814 -1.81439e-12 0)
(0.182814 -1.97077e-12 0)
(0.182814 -2.1251e-12 0)
(0.182814 -2.27715e-12 0)
(0.182814 -2.42761e-12 0)
(0.182814 -2.57598e-12 0)
(0.182814 -2.72253e-12 0)
(0.182814 -2.86722e-12 0)
(0.182814 -3.00966e-12 0)
(0.182814 -3.15045e-12 0)
(0.182814 -3.28921e-12 0)
(0.182814 -3.42656e-12 0)
(0.182814 -3.56184e-12 0)
(0.182814 -3.69489e-12 0)
(0.182814 -3.8274e-12 0)
(0.182814 -3.95806e-12 0)
(0.182814 -4.0878e-12 0)
(0.182814 -4.21665e-12 0)
(0.182814 -4.3436e-12 0)
(0.182814 -4.47086e-12 0)
(0.182814 -4.59761e-12 0)
(0.182814 -4.72444e-12 0)
(0.182814 -4.85214e-12 0)
(0.182814 -4.97959e-12 0)
(0.182814 -5.10924e-12 0)
(0.182814 -5.24103e-12 0)
(0.182814 -5.37511e-12 0)
(0.182814 -5.51294e-12 0)
(0.182814 -5.65463e-12 0)
(0.182814 -5.802e-12 0)
(0.182814 -5.95588e-12 0)
(0.182814 -6.11701e-12 0)
(0.182814 -6.28714e-12 0)
(0.182814 -6.46743e-12 0)
(0.182814 -6.66006e-12 0)
(0.182814 -6.86704e-12 0)
(0.182814 -7.09033e-12 0)
(0.182814 -7.33197e-12 0)
(0.182814 -7.59435e-12 0)
(0.182814 -7.88131e-12 0)
(0.182814 -8.19494e-12 0)
(0.182814 -8.53979e-12 0)
(0.182814 -8.91918e-12 0)
(0.182814 -9.33639e-12 0)
(0.182814 -9.79771e-12 0)
(0.182814 -1.03074e-11 0)
(0.182814 -1.08713e-11 0)
(0.182814 -1.14952e-11 0)
(0.182814 -1.21847e-11 0)
(0.182814 -1.29491e-11 0)
(0.182814 -1.37951e-11 0)
(0.182814 -1.47303e-11 0)
(0.182814 -1.57651e-11 0)
(0.182814 -1.69082e-11 0)
(0.182814 -1.81707e-11 0)
(0.182814 -1.95637e-11 0)
(0.182814 -2.10986e-11 0)
(0.182814 -2.27874e-11 0)
(0.182814 -2.46433e-11 0)
(0.182814 -2.66806e-11 0)
(0.182814 -2.89121e-11 0)
(0.182814 -3.1352e-11 0)
(0.182814 -3.40137e-11 0)
(0.182814 -3.69102e-11 0)
(0.182814 -4.00543e-11 0)
(0.182814 -4.3456e-11 0)
(0.182814 -4.7125e-11 0)
(0.182814 -5.10656e-11 0)
(0.182814 -5.5277e-11 0)
(0.182814 -5.97541e-11 0)
(0.182814 -6.44786e-11 0)
(0.182814 -6.94187e-11 0)
(0.182814 -7.45213e-11 0)
(0.182814 -7.97011e-11 0)
(0.182814 -8.48307e-11 0)
(0.182814 -8.97132e-11 0)
(0.182814 -9.40532e-11 0)
(0.182814 -9.74115e-11 0)
(0.182814 -9.91294e-11 0)
(0.182814 -9.82263e-11 0)
(0.182814 -9.32368e-11 0)
(0.182814 -8.19725e-11 0)
(0.182814 -6.11754e-11 0)
(0.182814 -2.60266e-11 0)
(0.182814 3.04254e-11 0)
(0.182814 1.17553e-10 0)
(0.182814 2.48117e-10 0)
(0.182814 4.36304e-10 0)
(0.182814 6.92954e-10 0)
(0.182814 1.01222e-09 0)
(0.182814 1.3352e-09 0)
(0.182814 1.50516e-09 0)
(0.182814 1.30761e-09 0)
(0.252529 1.11834e-09 0)
(0.252529 3.13826e-11 0)
(0.252529 -8.90329e-10 0)
(0.252529 -1.41878e-09 0)
(0.252529 -1.63502e-09 0)
(0.252529 -1.68228e-09 0)
(0.252529 -1.63908e-09 0)
(0.252529 -1.54626e-09 0)
(0.252529 -1.42956e-09 0)
(0.252529 -1.30375e-09 0)
(0.252529 -1.17711e-09 0)
(0.252529 -1.05427e-09 0)
(0.252529 -9.37744e-10 0)
(0.252529 -8.2879e-10 0)
(0.252529 -7.27886e-10 0)
(0.252529 -6.35041e-10 0)
(0.252529 -5.49985e-10 0)
(0.252529 -4.72296e-10 0)
(0.252529 -4.01476e-10 0)
(0.252529 -3.37004e-10 0)
(0.252529 -2.78365e-10 0)
(0.252529 -2.25069e-10 0)
(0.252529 -1.76657e-10 0)
(0.252529 -1.32705e-10 0)
(0.252529 -9.28233e-11 0)
(0.252529 -5.66572e-11 0)
(0.252529 -2.38838e-11 0)
(0.252529 5.7924e-12 0)
(0.252529 3.26551e-11 0)
(0.252529 5.69283e-11 0)
(0.252529 7.88381e-11 0)
(0.252529 9.85885e-11 0)
(0.252529 1.16363e-10 0)
(0.252529 1.32328e-10 0)
(0.252529 1.46634e-10 0)
(0.252529 1.59419e-10 0)
(0.252529 1.70808e-10 0)
(0.252529 1.80912e-10 0)
(0.252529 1.89837e-10 0)
(0.252529 1.97674e-10 0)
(0.252529 2.04509e-10 0)
(0.252529 2.1042e-10 0)
(0.252529 2.15478e-10 0)
(0.252529 2.19746e-10 0)
(0.252529 2.23285e-10 0)
(0.252529 2.26148e-10 0)
(0.252529 2.28386e-10 0)
(0.252529 2.30042e-10 0)
(0.252529 2.3116e-10 0)
(0.252529 2.31778e-10 0)
(0.252529 2.31932e-10 0)
(0.252529 2.31654e-10 0)
(0.252529 2.30977e-10 0)
(0.252529 2.29927e-10 0)
(0.252529 2.28532e-10 0)
(0.252529 2.26816e-10 0)
(0.252529 2.24803e-10 0)
(0.252529 2.22514e-10 0)
(0.252529 2.1997e-10 0)
(0.252529 2.17191e-10 0)
(0.252529 2.14193e-10 0)
(0.252529 2.10996e-10 0)
(0.252529 2.07614e-10 0)
(0.252529 2.04064e-10 0)
(0.252529 2.00361e-10 0)
(0.252529 1.96517e-10 0)
(0.252529 1.92548e-10 0)
(0.252529 1.88466e-10 0)
(0.252529 1.84282e-10 0)
(0.252529 1.8001e-10 0)
(0.252529 1.7566e-10 0)
(0.252529 1.71244e-10 0)
(0.252529 1.66773e-10 0)
(0.252529 1.62255e-10 0)
(0.252529 1.57701e-10 0)
(0.252529 1.53121e-10 0)
(0.252529 1.48523e-10 0)
(0.252529 1.43916e-10 0)
(0.252529 1.39309e-10 0)
(0.252529 1.3471e-10 0)
(0.252529 1.30126e-10 0)
(0.252529 1.25565e-10 0)
(0.252529 1.21035e-10 0)
(0.252529 1.16541e-10 0)
(0.252529 1.12091e-10 0)
(0.252529 1.07691e-10 0)
(0.252529 1.03347e-10 0)
(0.252529 9.90643e-11 0)
(0.252529 9.48483e-11 0)
(0.252529 9.07041e-11 0)
(0.252529 8.66365e-11 0)
(0.252529 8.26501e-11 0)
(0.252529 7.87491e-11 0)
(0.252529 7.49371e-11 0)
(0.252529 7.12177e-11 0)
(0.252529 6.75939e-11 0)
(0.252529 6.40693e-11 0)
(0.252529 6.06462e-11 0)
(0.252529 5.73269e-11 0)
(0.252529 5.41135e-11 0)
(0.252529 5.10077e-11 0)
(0.252529 4.80113e-11 0)
(0.252529 4.51252e-11 0)
(0.252529 4.23507e-11 0)
(0.252529 3.96883e-11 0)
(0.252529 3.71378e-11 0)
(0.252529 3.46997e-11 0)
(0.252529 3.23744e-11 0)
(0.252529 3.0161e-11 0)
(0.252529 2.80587e-11 0)
(0.252529 2.60668e-11 0)
(0.252529 2.41837e-11 0)
(0.252529 2.2409e-11 0)
(0.252529 2.07409e-11 0)
(0.252529 1.91773e-11 0)
(0.252529 1.77165e-11 0)
(0.252529 1.63562e-11 0)
(0.252529 1.50948e-11 0)
(0.252529 1.39293e-11 0)
(0.252529 1.28571e-11 0)
(0.252529 1.18755e-11 0)
(0.252529 1.09817e-11 0)
(0.252529 1.01732e-11 0)
(0.252529 9.44681e-12 0)
(0.252529 8.79869e-12 0)
(0.252529 8.22599e-12 0)
(0.252529 7.72567e-12 0)
(0.252529 7.29455e-12 0)
(0.252529 6.92885e-12 0)
(0.252529 6.62506e-12 0)
(0.252529 6.38014e-12 0)
(0.252529 6.19048e-12 0)
(0.252529 6.05272e-12 0)
(0.252529 5.96313e-12 0)
(0.252529 5.91854e-12 0)
(0.252529 5.91583e-12 0)
(0.252529 5.95132e-12 0)
(0.252529 6.02211e-12 0)
(0.252529 6.12478e-12 0)
(0.252529 6.2557e-12 0)
(0.252529 6.41234e-12 0)
(0.252529 6.59154e-12 0)
(0.252529 6.79083e-12 0)
(0.252529 7.00707e-12 0)
(0.252529 7.23686e-12 0)
(0.252529 7.4781e-12 0)
(0.252529 7.72825e-12 0)
(0.252529 7.98524e-12 0)
(0.252529 8.24665e-12 0)
(0.252529 8.50968e-12 0)
(0.252529 8.77235e-12 0)
(0.252529 9.03312e-12 0)
(0.252529 9.29041e-12 0)
(0.252529 9.5417e-12 0)
(0.252529 9.78557e-12 0)
(0.252529 1.0021e-11 0)
(0.252529 1.02462e-11 0)
(0.252529 1.04601e-11 0)
(0.252529 1.0662e-11 0)
(0.252529 1.08501e-11 0)
(0.252529 1.10233e-11 0)
(0.252529 1.11816e-11 0)
(0.252529 1.1324e-11 0)
(0.252529 1.14496e-11 0)
(0.252529 1.15582e-11 0)
(0.252529 1.16494e-11 0)
(0.252529 1.17224e-11 0)
(0.252529 1.17781e-11 0)
(0.252529 1.18155e-11 0)
(0.252529 1.18342e-11 0)
(0.252529 1.18349e-11 0)
(0.252529 1.1817e-11 0)
(0.252529 1.17816e-11 0)
(0.252529 1.17283e-11 0)
(0.252529 1.16573e-11 0)
(0.252529 1.15694e-11 0)
(0.252529 1.1464e-11 0)
(0.252529 1.13424e-11 0)
(0.252529 1.12049e-11 0)
(0.252529 1.10519e-11 0)