/*--------------------------------*- C++ -*----------------------------------*\
| =========                 |                                                 |
| \\      /  F ield         | OpenFOAM: The Open Source CFD Toolbox           |
|  \\    /   O peration     | Version:  2112                                  |
|   \\  /    A nd           | Website:  www.openfoam.com                      |
|    \\/     M anipulation  |                                                 |
\*---------------------------------------------------------------------------*/
FoamFile
{
    version     2.0;
    format      ascii;
    arch        "LSB;label=32;scalar=64";
    class       volScalarField;
    location    "6";
    object      p;
}
// * * * * * * * * * * * * * * * * * * * * * * * * * * * * * * * * * * * * * //

dimensions      [0 2 -2 0 0 0 0];

internalField   nonuniform List<scalar> 
25600
(
-8.27046e-14
5.657e-10
1.00976e-09
1.29513e-09
1.48129e-09
1.59775e-09
1.65106e-09
1.65774e-09
1.63486e-09
1.59711e-09
1.55736e-09
1.52601e-09
1.51025e-09
1.5138e-09
1.53736e-09
1.57932e-09
1.63663e-09
1.70556e-09
1.78226e-09
1.86309e-09
1.94483e-09
2.02474e-09
2.10053e-09
2.17035e-09
2.23272e-09
2.28648e-09
2.33074e-09
2.36479e-09
2.38802e-09
2.4005e-09
2.40186e-09
2.39208e-09
2.37127e-09
2.33961e-09
2.2974e-09
2.245e-09
2.18283e-09
2.11135e-09
2.03107e-09
1.94255e-09
1.84633e-09
1.74299e-09
1.63311e-09
1.51727e-09
1.39604e-09
1.26998e-09
1.13964e-09
1.00555e-09
8.68215e-10
7.28133e-10
5.85767e-10
4.41562e-10
2.95938e-10
1.49292e-10
1.99942e-12
-1.4559e-10
-2.93149e-10
-4.40369e-10
-5.86967e-10
-7.32676e-10
-8.77251e-10
-1.02046e-09
-1.16211e-09
-1.30199e-09
-1.43993e-09
-1.57577e-09
-1.70936e-09
-1.84057e-09
-1.96927e-09
-2.09537e-09
-2.21876e-09
-2.33936e-09
-2.45709e-09
-2.5719e-09
-2.68371e-09
-2.79249e-09
-2.8982e-09
-3.00081e-09
-3.10029e-09
-3.19663e-09
-3.28982e-09
-3.37987e-09
-3.46676e-09
-3.55052e-09
-3.63116e-09
-3.70869e-09
-3.78315e-09
-3.85457e-09
-3.92297e-09
-3.9884e-09
-4.05091e-09
-4.11053e-09
-4.16731e-09
-4.22132e-09
-4.2726e-09
-4.32122e-09
-4.36723e-09
-4.41069e-09
-4.45168e-09
-4.49026e-09
-4.5265e-09
-4.56047e-09
-4.59223e-09
-4.62187e-09
-4.64945e-09
-4.67505e-09
-4.69874e-09
-4.7206e-09
-4.7407e-09
-4.75912e-09
-4.77593e-09
-4.7912e-09
-4.805e-09
-4.81742e-09
-4.82852e-09
-4.83837e-09
-4.84704e-09
-4.85461e-09
-4.86113e-09
-4.86667e-09
-4.87131e-09
-4.87509e-09
-4.87808e-09
-4.88035e-09
-4.88194e-09
-4.88291e-09
-4.88332e-09
-4.88321e-09
-4.88264e-09
-4.88165e-09
-4.88029e-09
-4.8786e-09
-4.87662e-09
-4.87439e-09
-4.87194e-09
-4.86931e-09
-4.86652e-09
-4.86362e-09
-4.86062e-09
-4.85755e-09
-4.85443e-09
-4.85129e-09
-4.84814e-09
-4.845e-09
-4.84189e-09
-4.83881e-09
-4.83577e-09
-4.8328e-09
-4.82989e-09
-4.82706e-09
-4.82429e-09
-4.82161e-09
-4.81901e-09
-4.81649e-09
-4.81405e-09
-4.81169e-09
-4.8094e-09
-4.80719e-09
-4.80504e-09
-4.80295e-09
-4.80091e-09
-4.79892e-09
-4.79697e-09
-4.79505e-09
-4.79314e-09
-4.79125e-09
-4.78936e-09
-4.78746e-09
-4.78554e-09
-4.78359e-09
-4.78159e-09
-4.77955e-09
-4.77745e-09
-4.77527e-09
-4.773e-09
-4.77065e-09
-4.76819e-09
-4.76561e-09
-4.76291e-09
-4.76008e-09
-4.7571e-09
-4.75398e-09
-4.75069e-09
-4.74724e-09
-4.74361e-09
-4.7398e-09
-4.7358e-09
-4.7316e-09
-4.7272e-09
-4.7226e-09
-4.71778e-09
-4.71275e-09
-4.7075e-09
-4.70203e-09
-4.69632e-09
-4.69039e-09
-4.68423e-09
-4.67784e-09
-4.67121e-09
-4.66435e-09
-4.65725e-09
-4.64992e-09
-4.64235e-09
-4.63455e-09
-4.62651e-09
-4.61825e-09
-4.60976e-09
-4.60104e-09
-4.59209e-09
-4.58292e-09
-4.57354e-09
-4.56394e-09
-4.55412e-09
-4.5441e-09
-4.53387e-09
-4.52344e-09
-4.51281e-09
-4.50199e-09
-4.49098e-09
-4.47978e-09
-4.4684e-09
-4.45684e-09
-4.44511e-09
-4.4332e-09
-4.42113e-09
-4.40889e-09
-4.39648e-09
-4.38392e-09
-4.3712e-09
-4.35831e-09
-4.34528e-09
-4.33208e-09
-4.31873e-09
-4.30522e-09
-4.29155e-09
-4.27771e-09
-4.26371e-09
-4.24953e-09
-4.23517e-09
-4.22062e-09
-4.20587e-09
-4.19091e-09
-4.17572e-09
-4.16029e-09
-4.1446e-09
-4.12862e-09
-4.11233e-09
-4.09571e-09
-4.07872e-09
-4.06133e-09
-4.04349e-09
-4.02517e-09
-4.0063e-09
-3.98684e-09
-3.96672e-09
-3.94588e-09
-3.92423e-09
-3.9017e-09
-3.87818e-09
-3.85358e-09
-3.82778e-09
-3.80066e-09
-3.77209e-09
-3.74191e-09
-3.70996e-09
-3.67607e-09
-3.64004e-09
-3.60168e-09
-3.56075e-09
-3.51702e-09
-3.47023e-09
-3.4201e-09
-3.36636e-09
-3.30868e-09
-3.24674e-09
-3.18021e-09
-3.10873e-09
-3.03194e-09
-2.94945e-09
-2.8609e-09
-2.76589e-09
-2.66405e-09
-2.55502e-09
-2.43843e-09
-2.31396e-09
-2.18131e-09
-2.04023e-09
-1.89052e-09
-1.73205e-09
-1.56476e-09
-1.38871e-09
-1.20406e-09
-1.01111e-09
-8.10346e-10
-6.0243e-10
-3.88271e-10
-1.69058e-10
5.36871e-11
2.78047e-10
5.01641e-10
7.21564e-10
9.3432e-10
1.13578e-09
1.32119e-09
1.48518e-09
1.62191e-09
1.72528e-09
1.78913e-09
1.8076e-09
1.77532e-09
1.68736e-09
1.53946e-09
1.33415e-09
1.06801e-09
7.46123e-10
3.81846e-10
-4.62781e-12
-3.6303e-10
-5.68919e-10
-4.54065e-10
6.36679e-11
4.09471e-10
7.06405e-10
9.33175e-10
1.12296e-09
1.26389e-09
1.3455e-09
1.38047e-09
1.38545e-09
1.37457e-09
1.36052e-09
1.3537e-09
1.36122e-09
1.38667e-09
1.43054e-09
1.49108e-09
1.56517e-09
1.6491e-09
1.73906e-09
1.83155e-09
1.9235e-09
2.01229e-09
2.0958e-09
2.17232e-09
2.24047e-09
2.29922e-09
2.34774e-09
2.38549e-09
2.41214e-09
2.42721e-09
2.43077e-09
2.42286e-09
2.4036e-09
2.37322e-09
2.33205e-09
2.28048e-09
2.21895e-09
2.14795e-09
2.06802e-09
1.97972e-09
1.88362e-09
1.78031e-09
1.67039e-09
1.55444e-09
1.43304e-09
1.30676e-09
1.17616e-09
1.04176e-09
9.04101e-10
7.63657e-10
6.20904e-10
4.76289e-10
3.30235e-10
1.83141e-10
3.53831e-11
-1.12687e-10
-2.6074e-10
-4.08467e-10
-5.55584e-10
-7.01823e-10
-8.46938e-10
-9.90702e-10
-1.1329e-09
-1.27335e-09
-1.41186e-09
-1.54828e-09
-1.68246e-09
-1.81426e-09
-1.94356e-09
-2.07026e-09
-2.19426e-09
-2.31547e-09
-2.43381e-09
-2.54923e-09
-2.66165e-09
-2.77105e-09
-2.87737e-09
-2.98059e-09
-3.08069e-09
-3.17764e-09
-3.27144e-09
-3.36208e-09
-3.44958e-09
-3.53393e-09
-3.61516e-09
-3.69327e-09
-3.76831e-09
-3.8403e-09
-3.90926e-09
-3.97525e-09
-4.0383e-09
-4.09845e-09
-4.15577e-09
-4.21029e-09
-4.26208e-09
-4.31119e-09
-4.35768e-09
-4.40162e-09
-4.44306e-09
-4.48209e-09
-4.51876e-09
-4.55315e-09
-4.58532e-09
-4.61535e-09
-4.64331e-09
-4.66928e-09
-4.69332e-09
-4.71552e-09
-4.73595e-09
-4.75467e-09
-4.77178e-09
-4.78733e-09
-4.80141e-09
-4.81408e-09
-4.82542e-09
-4.8355e-09
-4.84439e-09
-4.85215e-09
-4.85886e-09
-4.86458e-09
-4.86938e-09
-4.87332e-09
-4.87645e-09
-4.87884e-09
-4.88055e-09
-4.88163e-09
-4.88214e-09
-4.88212e-09
-4.88163e-09
-4.88071e-09
-4.87941e-09
-4.87777e-09
-4.87583e-09
-4.87363e-09
-4.87121e-09
-4.8686e-09
-4.86583e-09
-4.86294e-09
-4.85994e-09
-4.85687e-09
-4.85375e-09
-4.8506e-09
-4.84744e-09
-4.84428e-09
-4.84114e-09
-4.83804e-09
-4.83498e-09
-4.83198e-09
-4.82904e-09
-4.82618e-09
-4.82338e-09
-4.82067e-09
-4.81804e-09
-4.81548e-09
-4.81301e-09
-4.81062e-09
-4.8083e-09
-4.80605e-09
-4.80387e-09
-4.80175e-09
-4.79969e-09
-4.79767e-09
-4.79569e-09
-4.79375e-09
-4.79182e-09
-4.78991e-09
-4.788e-09
-4.78608e-09
-4.78415e-09
-4.78219e-09
-4.78018e-09
-4.77813e-09
-4.77602e-09
-4.77384e-09
-4.77158e-09
-4.76922e-09
-4.76677e-09
-4.7642e-09
-4.76151e-09
-4.75869e-09
-4.75573e-09
-4.75261e-09
-4.74935e-09
-4.74591e-09
-4.7423e-09
-4.73851e-09
-4.73454e-09
-4.73037e-09
-4.726e-09
-4.72142e-09
-4.71664e-09
-4.71164e-09
-4.70642e-09
-4.70098e-09
-4.69531e-09
-4.68942e-09
-4.68329e-09
-4.67694e-09
-4.67035e-09
-4.66353e-09
-4.65647e-09
-4.64918e-09
-4.64165e-09
-4.63389e-09
-4.6259e-09
-4.61768e-09
-4.60923e-09
-4.60056e-09
-4.59166e-09
-4.58253e-09
-4.57319e-09
-4.56364e-09
-4.55387e-09
-4.54389e-09
-4.53371e-09
-4.52333e-09
-4.51274e-09
-4.50197e-09
-4.491e-09
-4.47985e-09
-4.46852e-09
-4.457e-09
-4.44532e-09
-4.43346e-09
-4.42143e-09
-4.40924e-09
-4.39688e-09
-4.38437e-09
-4.3717e-09
-4.35887e-09
-4.34588e-09
-4.33274e-09
-4.31944e-09
-4.30599e-09
-4.29237e-09
-4.27859e-09
-4.26465e-09
-4.25053e-09
-4.23624e-09
-4.22175e-09
-4.20707e-09
-4.19218e-09
-4.17707e-09
-4.16172e-09
-4.14611e-09
-4.13022e-09
-4.11403e-09
-4.09751e-09
-4.08062e-09
-4.06334e-09
-4.04563e-09
-4.02743e-09
-4.0087e-09
-3.98939e-09
-3.96943e-09
-3.94875e-09
-3.92729e-09
-3.90495e-09
-3.88164e-09
-3.85727e-09
-3.83172e-09
-3.80487e-09
-3.77659e-09
-3.74672e-09
-3.71511e-09
-3.68158e-09
-3.64595e-09
-3.60801e-09
-3.56755e-09
-3.52431e-09
-3.47805e-09
-3.42851e-09
-3.37538e-09
-3.31836e-09
-3.25713e-09
-3.19136e-09
-3.12068e-09
-3.04474e-09
-2.96316e-09
-2.87557e-09
-2.78157e-09
-2.6808e-09
-2.57287e-09
-2.45745e-09
-2.33418e-09
-2.20278e-09
-2.06298e-09
-1.91457e-09
-1.75742e-09
-1.59147e-09
-1.41673e-09
-1.23337e-09
-1.04166e-09
-8.42054e-10
-6.35172e-10
-4.2188e-10
-2.03311e-10
1.90808e-11
2.43455e-10
4.67521e-10
6.88467e-10
9.02901e-10
1.1068e-09
1.29552e-09
1.46381e-09
1.606e-09
1.71618e-09
1.78858e-09
1.81795e-09
1.80007e-09
1.73235e-09
1.614e-09
1.4425e-09
1.22292e-09
9.6293e-10
6.76768e-10
3.78305e-10
8.16764e-11
-1.43801e-10
-1.663e-10
1.02979e-10
2.98233e-10
4.75571e-10
6.33807e-10
8.0727e-10
9.60603e-10
1.06162e-09
1.11872e-09
1.14827e-09
1.16309e-09
1.17487e-09
1.19343e-09
1.22541e-09
1.27398e-09
1.33933e-09
1.41949e-09
1.51124e-09
1.61087e-09
1.71464e-09
1.81917e-09
1.92152e-09
2.01926e-09
2.1104e-09
2.19339e-09
2.26699e-09
2.33029e-09
2.38258e-09
2.42339e-09
2.45246e-09
2.46955e-09
2.47467e-09
2.46793e-09
2.4495e-09
2.41969e-09
2.37884e-09
2.32739e-09
2.26581e-09
2.19464e-09
2.11442e-09
2.02573e-09
1.92916e-09
1.82533e-09
1.71483e-09
1.59826e-09
1.47621e-09
1.34926e-09
1.21797e-09
1.08288e-09
9.44497e-10
8.03332e-10
6.59852e-10
5.14507e-10
3.6772e-10
2.19893e-10
7.14006e-11
-7.74032e-11
-2.26189e-10
-3.7465e-10
-5.22498e-10
-6.69467e-10
-8.15312e-10
-9.59803e-10
-1.10273e-09
-1.2439e-09
-1.38314e-09
-1.52028e-09
-1.65518e-09
-1.7877e-09
-1.91772e-09
-2.04513e-09
-2.16984e-09
-2.29175e-09
-2.4108e-09
-2.52691e-09
-2.64003e-09
-2.75012e-09
-2.85712e-09
-2.96102e-09
-3.06179e-09
-3.1594e-09
-3.25386e-09
-3.34515e-09
-3.43329e-09
-3.51827e-09
-3.60012e-09
-3.67885e-09
-3.75449e-09
-3.82707e-09
-3.89661e-09
-3.96317e-09
-4.02677e-09
-4.08747e-09
-4.14532e-09
-4.20036e-09
-4.25265e-09
-4.30225e-09
-4.34921e-09
-4.39361e-09
-4.43551e-09
-4.47497e-09
-4.51206e-09
-4.54684e-09
-4.5794e-09
-4.60981e-09
-4.63812e-09
-4.66443e-09
-4.6888e-09
-4.71131e-09
-4.73203e-09
-4.75104e-09
-4.76841e-09
-4.78421e-09
-4.79852e-09
-4.81142e-09
-4.82297e-09
-4.83324e-09
-4.84231e-09
-4.85024e-09
-4.85711e-09
-4.86298e-09
-4.8679e-09
-4.87196e-09
-4.8752e-09
-4.87769e-09
-4.87948e-09
-4.88064e-09
-4.88121e-09
-4.88125e-09
-4.8808e-09
-4.87992e-09
-4.87865e-09
-4.87704e-09
-4.87512e-09
-4.87293e-09
-4.87052e-09
-4.86791e-09
-4.86513e-09
-4.86223e-09
-4.85922e-09
-4.85613e-09
-4.85299e-09
-4.84981e-09
-4.84662e-09
-4.84343e-09
-4.84026e-09
-4.83713e-09
-4.83404e-09
-4.831e-09
-4.82803e-09
-4.82513e-09
-4.8223e-09
-4.81955e-09
-4.81688e-09
-4.81429e-09
-4.81178e-09
-4.80936e-09
-4.80701e-09
-4.80473e-09
-4.80252e-09
-4.80038e-09
-4.79829e-09
-4.79625e-09
-4.79425e-09
-4.79229e-09
-4.79035e-09
-4.78842e-09
-4.7865e-09
-4.78458e-09
-4.78264e-09
-4.78067e-09
-4.77867e-09
-4.77662e-09
-4.77451e-09
-4.77233e-09
-4.77008e-09
-4.76773e-09
-4.76529e-09
-4.76274e-09
-4.76006e-09
-4.75726e-09
-4.75432e-09
-4.75123e-09
-4.74799e-09
-4.74458e-09
-4.741e-09
-4.73724e-09
-4.7333e-09
-4.72916e-09
-4.72483e-09
-4.72029e-09
-4.71554e-09
-4.71058e-09
-4.7054e-09
-4.7e-09
-4.69437e-09
-4.68852e-09
-4.68244e-09
-4.67613e-09
-4.66958e-09
-4.6628e-09
-4.65579e-09
-4.64855e-09
-4.64107e-09
-4.63335e-09
-4.62541e-09
-4.61724e-09
-4.60883e-09
-4.6002e-09
-4.59135e-09
-4.58228e-09
-4.57298e-09
-4.56347e-09
-4.55375e-09
-4.54382e-09
-4.53369e-09
-4.52335e-09
-4.51281e-09
-4.50209e-09
-4.49117e-09
-4.48007e-09
-4.46878e-09
-4.45732e-09
-4.44568e-09
-4.43387e-09
-4.42189e-09
-4.40975e-09
-4.39744e-09
-4.38498e-09
-4.37236e-09
-4.35958e-09
-4.34665e-09
-4.33356e-09
-4.32032e-09
-4.30693e-09
-4.29337e-09
-4.27966e-09
-4.26578e-09
-4.25173e-09
-4.23751e-09
-4.2231e-09
-4.2085e-09
-4.1937e-09
-4.17867e-09
-4.16342e-09
-4.14791e-09
-4.13213e-09
-4.11605e-09
-4.09965e-09
-4.0829e-09
-4.06576e-09
-4.04819e-09
-4.03016e-09
-4.01161e-09
-3.99249e-09
-3.97273e-09
-3.95228e-09
-3.93106e-09
-3.90899e-09
-3.88597e-09
-3.86192e-09
-3.83671e-09
-3.81022e-09
-3.78234e-09
-3.7529e-09
-3.72177e-09
-3.68875e-09
-3.65368e-09
-3.61634e-09
-3.57652e-09
-3.53399e-09
-3.4885e-09
-3.43977e-09
-3.38753e-09
-3.33146e-09
-3.27126e-09
-3.20658e-09
-3.13707e-09
-3.06238e-09
-2.98214e-09
-2.89596e-09
-2.80346e-09
-2.70427e-09
-2.598e-09
-2.48432e-09
-2.36287e-09
-2.23335e-09
-2.09549e-09
-1.94908e-09
-1.79396e-09
-1.63005e-09
-1.45736e-09
-1.276e-09
-1.08623e-09
-8.88431e-10
-6.83193e-10
-4.71302e-10
-2.53807e-10
-3.20637e-11
1.92208e-10
4.16854e-10
6.39218e-10
8.56074e-10
1.06358e-09
1.25727e-09
1.43211e-09
1.58263e-09
1.70319e-09
1.78835e-09
1.83334e-09
1.83456e-09
1.79008e-09
1.69986e-09
1.56561e-09
1.39099e-09
1.1838e-09
9.5725e-10
7.16194e-10
4.47107e-10
1.76333e-10
3.02545e-11
1.19232e-10
2.27225e-10
3.21026e-10
4.13335e-10
5.62342e-10
7.20193e-10
8.33257e-10
9.0561e-10
9.54301e-10
9.90823e-10
1.02555e-09
1.06738e-09
1.12227e-09
1.19282e-09
1.27878e-09
1.37787e-09
1.48668e-09
1.60142e-09
1.7184e-09
1.83429e-09
1.9463e-09
2.05214e-09
2.14999e-09
2.23844e-09
2.31642e-09
2.38313e-09
2.43803e-09
2.48073e-09
2.51105e-09
2.52892e-09
2.53438e-09
2.52761e-09
2.50887e-09
2.47849e-09
2.43688e-09
2.38452e-09
2.3219e-09
2.24959e-09
2.16817e-09
2.07824e-09
1.9804e-09
1.87527e-09
1.76348e-09
1.64562e-09
1.52229e-09
1.39408e-09
1.26155e-09
1.12523e-09
9.85664e-10
8.43334e-10
6.98717e-10
5.52261e-10
4.04391e-10
2.55506e-10
1.05982e-10
-4.38302e-11
-1.93601e-10
-3.43024e-10
-4.91814e-10
-6.39706e-10
-7.86454e-10
-9.3183e-10
-1.07563e-09
-1.21765e-09
-1.35772e-09
-1.49569e-09
-1.63139e-09
-1.7647e-09
-1.8955e-09
-2.02368e-09
-2.14914e-09
-2.2718e-09
-2.39158e-09
-2.50841e-09
-2.62223e-09
-2.73301e-09
-2.8407e-09
-2.94526e-09
-3.04668e-09
-3.14494e-09
-3.24002e-09
-3.33193e-09
-3.42067e-09
-3.50624e-09
-3.58866e-09
-3.66796e-09
-3.74414e-09
-3.81725e-09
-3.88731e-09
-3.95437e-09
-4.01846e-09
-4.07963e-09
-4.13793e-09
-4.19341e-09
-4.24613e-09
-4.29614e-09
-4.3435e-09
-4.38828e-09
-4.43054e-09
-4.47035e-09
-4.50777e-09
-4.54287e-09
-4.57573e-09
-4.60642e-09
-4.63501e-09
-4.66157e-09
-4.68618e-09
-4.70892e-09
-4.72985e-09
-4.74906e-09
-4.76661e-09
-4.78258e-09
-4.79705e-09
-4.81009e-09
-4.82177e-09
-4.83217e-09
-4.84134e-09
-4.84937e-09
-4.85632e-09
-4.86226e-09
-4.86726e-09
-4.87137e-09
-4.87465e-09
-4.87718e-09
-4.87901e-09
-4.88018e-09
-4.88077e-09
-4.88082e-09
-4.88037e-09
-4.87949e-09
-4.87821e-09
-4.87658e-09
-4.87464e-09
-4.87243e-09
-4.86999e-09
-4.86735e-09
-4.86454e-09
-4.8616e-09
-4.85856e-09
-4.85543e-09
-4.85224e-09
-4.84903e-09
-4.84579e-09
-4.84257e-09
-4.83936e-09
-4.83618e-09
-4.83305e-09
-4.82997e-09
-4.82696e-09
-4.82401e-09
-4.82115e-09
-4.81836e-09
-4.81566e-09
-4.81304e-09
-4.8105e-09
-4.80805e-09
-4.80568e-09
-4.80338e-09
-4.80115e-09
-4.79898e-09
-4.79688e-09
-4.79483e-09
-4.79282e-09
-4.79085e-09
-4.7889e-09
-4.78697e-09
-4.78505e-09
-4.78313e-09
-4.7812e-09
-4.77924e-09
-4.77724e-09
-4.77521e-09
-4.77311e-09
-4.77095e-09
-4.76872e-09
-4.76639e-09
-4.76397e-09
-4.76144e-09
-4.7588e-09
-4.75602e-09
-4.75311e-09
-4.75005e-09
-4.74684e-09
-4.74347e-09
-4.73993e-09
-4.7362e-09
-4.73229e-09
-4.7282e-09
-4.7239e-09
-4.7194e-09
-4.71469e-09
-4.70977e-09
-4.70463e-09
-4.69927e-09
-4.69369e-09
-4.68788e-09
-4.68184e-09
-4.67557e-09
-4.66907e-09
-4.66234e-09
-4.65537e-09
-4.64817e-09
-4.64073e-09
-4.63306e-09
-4.62516e-09
-4.61703e-09
-4.60867e-09
-4.60008e-09
-4.59127e-09
-4.58224e-09
-4.57299e-09
-4.56352e-09
-4.55384e-09
-4.54395e-09
-4.53386e-09
-4.52356e-09
-4.51307e-09
-4.50239e-09
-4.49151e-09
-4.48045e-09
-4.4692e-09
-4.45778e-09
-4.44619e-09
-4.43442e-09
-4.42249e-09
-4.41039e-09
-4.39813e-09
-4.38571e-09
-4.37314e-09
-4.36041e-09
-4.34753e-09
-4.3345e-09
-4.32131e-09
-4.30798e-09
-4.29448e-09
-4.28083e-09
-4.26702e-09
-4.25304e-09
-4.2389e-09
-4.22457e-09
-4.21005e-09
-4.19534e-09
-4.18041e-09
-4.16526e-09
-4.14987e-09
-4.13421e-09
-4.11827e-09
-4.10201e-09
-4.08541e-09
-4.06845e-09
-4.05107e-09
-4.03323e-09
-4.0149e-09
-3.99602e-09
-3.97653e-09
-3.95636e-09
-3.93545e-09
-3.91371e-09
-3.89107e-09
-3.86741e-09
-3.84264e-09
-3.81663e-09
-3.78927e-09
-3.7604e-09
-3.72988e-09
-3.69754e-09
-3.6632e-09
-3.62665e-09
-3.5877e-09
-3.5461e-09
-3.50162e-09
-3.45398e-09
-3.40292e-09
-3.34812e-09
-3.28929e-09
-3.22607e-09
-3.15814e-09
-3.08513e-09
-3.00668e-09
-2.9224e-09
-2.83192e-09
-2.73485e-09
-2.63083e-09
-2.51949e-09
-2.40049e-09
-2.27351e-09
-2.13828e-09
-1.99456e-09
-1.84217e-09
-1.68102e-09
-1.51106e-09
-1.3324e-09
-1.14521e-09
-9.49846e-10
-7.46796e-10
-5.36766e-10
-3.2069e-10
-9.97936e-11
1.24361e-10
3.49799e-10
5.74068e-10
7.94164e-10
1.00648e-09
1.20679e-09
1.39029e-09
1.55174e-09
1.6857e-09
1.78694e-09
1.85089e-09
1.87421e-09
1.8552e-09
1.79405e-09
1.69246e-09
1.55363e-09
1.38342e-09
1.19278e-09
9.80739e-10
7.14197e-10
3.93601e-10
1.49635e-10
1.46314e-10
1.96124e-10
2.23785e-10
2.50401e-10
3.68309e-10
5.25721e-10
6.46561e-10
7.29773e-10
7.93897e-10
8.49314e-10
9.04933e-10
9.68581e-10
1.0454e-09
1.1373e-09
1.24348e-09
1.36125e-09
1.48695e-09
1.61663e-09
1.74658e-09
1.87353e-09
1.99479e-09
2.10821e-09
2.21214e-09
2.30533e-09
2.38688e-09
2.45614e-09
2.5127e-09
2.55633e-09
2.58694e-09
2.60456e-09
2.60935e-09
2.60155e-09
2.58149e-09
2.54957e-09
2.50625e-09
2.45205e-09
2.38751e-09
2.31323e-09
2.2298e-09
2.13785e-09
2.03801e-09
1.9309e-09
1.81716e-09
1.6974e-09
1.57222e-09
1.4422e-09
1.30793e-09
1.16993e-09
1.02873e-09
8.84822e-10
7.38686e-10
5.90765e-10
4.41484e-10
2.91237e-10
1.40398e-10
-1.06822e-11
-1.61678e-10
-3.12287e-10
-4.62223e-10
-6.11224e-10
-7.59047e-10
-9.05466e-10
-1.05027e-09
-1.19328e-09
-1.33431e-09
-1.4732e-09
-1.60981e-09
-1.744e-09
-1.87566e-09
-2.00467e-09
-2.13094e-09
-2.25439e-09
-2.37494e-09
-2.49252e-09
-2.60708e-09
-2.71857e-09
-2.82695e-09
-2.93219e-09
-3.03427e-09
-3.13317e-09
-3.22888e-09
-3.32139e-09
-3.41071e-09
-3.49685e-09
-3.57983e-09
-3.65965e-09
-3.73635e-09
-3.80996e-09
-3.8805e-09
-3.94802e-09
-4.01255e-09
-4.07415e-09
-4.13286e-09
-4.18873e-09
-4.24182e-09
-4.29219e-09
-4.33989e-09
-4.38499e-09
-4.42755e-09
-4.46765e-09
-4.50534e-09
-4.5407e-09
-4.5738e-09
-4.60471e-09
-4.6335e-09
-4.66026e-09
-4.68505e-09
-4.70795e-09
-4.72903e-09
-4.74837e-09
-4.76604e-09
-4.78212e-09
-4.79669e-09
-4.80981e-09
-4.82157e-09
-4.83202e-09
-4.84125e-09
-4.84932e-09
-4.8563e-09
-4.86227e-09
-4.86727e-09
-4.87139e-09
-4.87467e-09
-4.87719e-09
-4.879e-09
-4.88016e-09
-4.88072e-09
-4.88073e-09
-4.88025e-09
-4.87933e-09
-4.87801e-09
-4.87633e-09
-4.87434e-09
-4.87208e-09
-4.86958e-09
-4.86689e-09
-4.86403e-09
-4.86103e-09
-4.85793e-09
-4.85474e-09
-4.8515e-09
-4.84823e-09
-4.84494e-09
-4.84166e-09
-4.8384e-09
-4.83517e-09
-4.83199e-09
-4.82887e-09
-4.82581e-09
-4.82283e-09
-4.81993e-09
-4.8171e-09
-4.81437e-09
-4.81172e-09
-4.80915e-09
-4.80668e-09
-4.80428e-09
-4.80196e-09
-4.79972e-09
-4.79755e-09
-4.79543e-09
-4.79337e-09
-4.79136e-09
-4.78939e-09
-4.78745e-09
-4.78553e-09
-4.78362e-09
-4.7817e-09
-4.77978e-09
-4.77784e-09
-4.77587e-09
-4.77385e-09
-4.77178e-09
-4.76965e-09
-4.76744e-09
-4.76514e-09
-4.76275e-09
-4.76026e-09
-4.75764e-09
-4.75491e-09
-4.75203e-09
-4.74901e-09
-4.74584e-09
-4.74251e-09
-4.739e-09
-4.73532e-09
-4.73145e-09
-4.7274e-09
-4.72314e-09
-4.71869e-09
-4.71402e-09
-4.70915e-09
-4.70405e-09
-4.69874e-09
-4.6932e-09
-4.68744e-09
-4.68144e-09
-4.67521e-09
-4.66876e-09
-4.66207e-09
-4.65514e-09
-4.64798e-09
-4.64059e-09
-4.63296e-09
-4.6251e-09
-4.61701e-09
-4.60869e-09
-4.60014e-09
-4.59137e-09
-4.58238e-09
-4.57317e-09
-4.56374e-09
-4.5541e-09
-4.54425e-09
-4.53419e-09
-4.52394e-09
-4.51348e-09
-4.50283e-09
-4.492e-09
-4.48097e-09
-4.46977e-09
-4.45838e-09
-4.44683e-09
-4.4351e-09
-4.42321e-09
-4.41115e-09
-4.39894e-09
-4.38657e-09
-4.37404e-09
-4.36136e-09
-4.34853e-09
-4.33555e-09
-4.32242e-09
-4.30914e-09
-4.2957e-09
-4.28212e-09
-4.26838e-09
-4.25448e-09
-4.24041e-09
-4.22617e-09
-4.21175e-09
-4.19713e-09
-4.18232e-09
-4.16729e-09
-4.15202e-09
-4.1365e-09
-4.12071e-09
-4.10462e-09
-4.08821e-09
-4.07144e-09
-4.05428e-09
-4.03669e-09
-4.01861e-09
-4.00002e-09
-3.98084e-09
-3.96102e-09
-3.94048e-09
-3.91916e-09
-3.89696e-09
-3.87379e-09
-3.84956e-09
-3.82414e-09
-3.79742e-09
-3.76925e-09
-3.73949e-09
-3.70798e-09
-3.67454e-09
-3.63898e-09
-3.6011e-09
-3.56066e-09
-3.51743e-09
-3.47116e-09
-3.42157e-09
-3.36836e-09
-3.31123e-09
-3.24985e-09
-3.18388e-09
-3.11298e-09
-3.03676e-09
-2.95487e-09
-2.86692e-09
-2.77253e-09
-2.67133e-09
-2.56295e-09
-2.44704e-09
-2.32327e-09
-2.19135e-09
-2.05103e-09
-1.9021e-09
-1.74443e-09
-1.57797e-09
-1.40273e-09
-1.21885e-09
-1.02661e-09
-8.26396e-10
-6.18816e-10
-4.04672e-10
-1.8503e-10
3.87281e-11
2.64838e-10
4.9108e-10
7.14711e-10
9.3239e-10
1.14016e-09
1.33345e-09
1.50723e-09
1.65621e-09
1.7752e-09
1.85963e-09
1.90606e-09
1.91258e-09
1.87908e-09
1.80645e-09
1.69687e-09
1.55427e-09
1.38782e-09
1.19464e-09
9.30014e-10
5.71686e-10
2.51777e-10
1.98133e-10
2.12207e-10
1.88553e-10
1.4908e-10
2.2839e-10
3.79483e-10
5.03262e-10
5.92402e-10
6.67634e-10
7.38512e-10
8.12405e-10
8.95932e-10
9.93288e-10
1.10559e-09
1.23135e-09
1.36737e-09
1.50964e-09
1.654e-09
1.79665e-09
1.93434e-09
2.06447e-09
2.18502e-09
2.29448e-09
2.3918e-09
2.47622e-09
2.54728e-09
2.60471e-09
2.64843e-09
2.67845e-09
2.69495e-09
2.69818e-09
2.68847e-09
2.66623e-09
2.63192e-09
2.58606e-09
2.52921e-09
2.46198e-09
2.38497e-09
2.29882e-09
2.20418e-09
2.10169e-09
1.99199e-09
1.87573e-09
1.75352e-09
1.62598e-09
1.49368e-09
1.35721e-09
1.2171e-09
1.07388e-09
9.28039e-10
7.80045e-10
6.30345e-10
4.79356e-10
3.27475e-10
1.7507e-10
2.24876e-11
-1.2995e-10
-2.81943e-10
-4.33209e-10
-5.8349e-10
-7.32544e-10
-8.80148e-10
-1.0261e-09
-1.17021e-09
-1.3123e-09
-1.45222e-09
-1.58982e-09
-1.72497e-09
-1.85755e-09
-1.98746e-09
-2.11461e-09
-2.2389e-09
-2.36026e-09
-2.47863e-09
-2.59395e-09
-2.70618e-09
-2.81528e-09
-2.92121e-09
-3.02396e-09
-3.1235e-09
-3.21983e-09
-3.31294e-09
-3.40284e-09
-3.48954e-09
-3.57305e-09
-3.65339e-09
-3.73059e-09
-3.80466e-09
-3.87566e-09
-3.94361e-09
-4.00856e-09
-4.07055e-09
-4.12963e-09
-4.18586e-09
-4.23928e-09
-4.28996e-09
-4.33796e-09
-4.38334e-09
-4.42616e-09
-4.46649e-09
-4.50441e-09
-4.53998e-09
-4.57326e-09
-4.60435e-09
-4.6333e-09
-4.6602e-09
-4.68512e-09
-4.70813e-09
-4.72931e-09
-4.74873e-09
-4.76648e-09
-4.78262e-09
-4.79723e-09
-4.81039e-09
-4.82217e-09
-4.83264e-09
-4.84187e-09
-4.84994e-09
-4.85691e-09
-4.86285e-09
-4.86783e-09
-4.87191e-09
-4.87515e-09
-4.87763e-09
-4.87938e-09
-4.88048e-09
-4.88098e-09
-4.88093e-09
-4.88038e-09
-4.87939e-09
-4.87799e-09
-4.87625e-09
-4.87418e-09
-4.87184e-09
-4.86927e-09
-4.8665e-09
-4.86357e-09
-4.86049e-09
-4.85732e-09
-4.85406e-09
-4.85075e-09
-4.84741e-09
-4.84406e-09
-4.84072e-09
-4.83739e-09
-4.83411e-09
-4.83088e-09
-4.8277e-09
-4.8246e-09
-4.82157e-09
-4.81863e-09
-4.81577e-09
-4.813e-09
-4.81033e-09
-4.80774e-09
-4.80524e-09
-4.80282e-09
-4.80049e-09
-4.79824e-09
-4.79606e-09
-4.79394e-09
-4.79189e-09
-4.78988e-09
-4.78791e-09
-4.78598e-09
-4.78407e-09
-4.78218e-09
-4.78029e-09
-4.77839e-09
-4.77647e-09
-4.77452e-09
-4.77253e-09
-4.77049e-09
-4.76839e-09
-4.76622e-09
-4.76396e-09
-4.76161e-09
-4.75915e-09
-4.75658e-09
-4.75388e-09
-4.75105e-09
-4.74808e-09
-4.74495e-09
-4.74166e-09
-4.7382e-09
-4.73457e-09
-4.73075e-09
-4.72674e-09
-4.72253e-09
-4.71812e-09
-4.7135e-09
-4.70867e-09
-4.70362e-09
-4.69836e-09
-4.69286e-09
-4.68714e-09
-4.68119e-09
-4.67501e-09
-4.6686e-09
-4.66195e-09
-4.65507e-09
-4.64795e-09
-4.6406e-09
-4.63301e-09
-4.62519e-09
-4.61714e-09
-4.60886e-09
-4.60036e-09
-4.59162e-09
-4.58267e-09
-4.57349e-09
-4.5641e-09
-4.5545e-09
-4.54468e-09
-4.53466e-09
-4.52444e-09
-4.51402e-09
-4.50341e-09
-4.49261e-09
-4.48162e-09
-4.47045e-09
-4.4591e-09
-4.44758e-09
-4.43589e-09
-4.42404e-09
-4.41202e-09
-4.39985e-09
-4.38752e-09
-4.37503e-09
-4.3624e-09
-4.34962e-09
-4.33669e-09
-4.32361e-09
-4.31039e-09
-4.29702e-09
-4.28351e-09
-4.26984e-09
-4.25602e-09
-4.24204e-09
-4.22789e-09
-4.21357e-09
-4.19907e-09
-4.18437e-09
-4.16947e-09
-4.15435e-09
-4.13899e-09
-4.12337e-09
-4.10747e-09
-4.09127e-09
-4.07473e-09
-4.05782e-09
-4.0405e-09
-4.02273e-09
-4.00446e-09
-3.98565e-09
-3.96622e-09
-3.94612e-09
-3.92528e-09
-3.9036e-09
-3.88101e-09
-3.85741e-09
-3.83268e-09
-3.80671e-09
-3.77937e-09
-3.75051e-09
-3.71998e-09
-3.6876e-09
-3.65321e-09
-3.61658e-09
-3.57752e-09
-3.53578e-09
-3.49112e-09
-3.44326e-09
-3.39193e-09
-3.33683e-09
-3.27762e-09
-3.21399e-09
-3.14559e-09
-3.07204e-09
-2.99299e-09
-2.90806e-09
-2.81686e-09
-2.71903e-09
-2.61418e-09
-2.50196e-09
-2.38203e-09
-2.25409e-09
-2.11785e-09
-1.9731e-09
-1.81965e-09
-1.6574e-09
-1.48634e-09
-1.30651e-09
-1.11812e-09
-9.21461e-10
-7.17017e-10
-5.05448e-10
-2.87651e-10
-6.48144e-11
1.61524e-10
3.89393e-10
6.16317e-10
8.39234e-10
1.05444e-09
1.25762e-09
1.44388e-09
1.60801e-09
1.74477e-09
1.84939e-09
1.91809e-09
1.94847e-09
1.93974e-09
1.89226e-09
1.80685e-09
1.68604e-09
1.53817e-09
1.36148e-09
1.10589e-09
7.28661e-10
3.55916e-10
2.75202e-10
2.74509e-10
2.16542e-10
1.13989e-10
1.48728e-10
2.87735e-10
4.0943e-10
4.99156e-10
5.80538e-10
6.627e-10
7.51477e-10
8.52189e-10
9.6798e-10
1.09905e-09
1.24315e-09
1.39645e-09
1.55451e-09
1.71289e-09
1.86766e-09
2.01553e-09
2.15396e-09
2.28103e-09
2.3954e-09
2.49616e-09
2.58275e-09
2.65486e-09
2.71238e-09
2.75538e-09
2.78402e-09
2.79859e-09
2.79945e-09
2.78702e-09
2.76179e-09
2.72431e-09
2.67516e-09
2.61495e-09
2.54432e-09
2.46391e-09
2.3744e-09
2.27646e-09
2.17074e-09
2.05791e-09
1.93862e-09
1.81348e-09
1.68312e-09
1.54813e-09
1.40907e-09
1.26648e-09
1.12089e-09
9.72793e-10
8.22644e-10
6.70886e-10
5.17937e-10
3.64184e-10
2.09993e-10
5.57049e-11
-9.8362e-11
-2.5191e-10
-4.04665e-10
-5.5637e-10
-7.06789e-10
-8.55701e-10
-1.0029e-09
-1.14822e-09
-1.29146e-09
-1.43249e-09
-1.57116e-09
-1.70734e-09
-1.84091e-09
-1.97178e-09
-2.09984e-09
-2.22501e-09
-2.34722e-09
-2.46641e-09
-2.58252e-09
-2.69551e-09
-2.80533e-09
-2.91197e-09
-3.01539e-09
-3.11558e-09
-3.21253e-09
-3.30624e-09
-3.39672e-09
-3.48397e-09
-3.568e-09
-3.64884e-09
-3.72651e-09
-3.80104e-09
-3.87246e-09
-3.94082e-09
-4.00616e-09
-4.06851e-09
-4.12794e-09
-4.18448e-09
-4.23821e-09
-4.28917e-09
-4.33742e-09
-4.38304e-09
-4.42609e-09
-4.46662e-09
-4.50472e-09
-4.54046e-09
-4.5739e-09
-4.60511e-09
-4.63418e-09
-4.66118e-09
-4.68618e-09
-4.70926e-09
-4.7305e-09
-4.74997e-09
-4.76775e-09
-4.78391e-09
-4.79853e-09
-4.81168e-09
-4.82345e-09
-4.83389e-09
-4.84309e-09
-4.85112e-09
-4.85804e-09
-4.86392e-09
-4.86884e-09
-4.87285e-09
-4.87602e-09
-4.87841e-09
-4.88009e-09
-4.8811e-09
-4.88151e-09
-4.88137e-09
-4.88073e-09
-4.87964e-09
-4.87815e-09
-4.8763e-09
-4.87414e-09
-4.87171e-09
-4.86905e-09
-4.86618e-09
-4.86316e-09
-4.86e-09
-4.85673e-09
-4.8534e-09
-4.85e-09
-4.84659e-09
-4.84316e-09
-4.83975e-09
-4.83636e-09
-4.83301e-09
-4.82972e-09
-4.82649e-09
-4.82334e-09
-4.82027e-09
-4.81728e-09
-4.81439e-09
-4.81159e-09
-4.80888e-09
-4.80627e-09
-4.80375e-09
-4.80133e-09
-4.79898e-09
-4.79672e-09
-4.79454e-09
-4.79243e-09
-4.79037e-09
-4.78838e-09
-4.78642e-09
-4.78451e-09
-4.78262e-09
-4.78075e-09
-4.77888e-09
-4.77701e-09
-4.77512e-09
-4.7732e-09
-4.77125e-09
-4.76925e-09
-4.76719e-09
-4.76506e-09
-4.76284e-09
-4.76053e-09
-4.75812e-09
-4.75559e-09
-4.75294e-09
-4.75016e-09
-4.74723e-09
-4.74416e-09
-4.74092e-09
-4.73751e-09
-4.73392e-09
-4.73015e-09
-4.72619e-09
-4.72203e-09
-4.71767e-09
-4.71311e-09
-4.70832e-09
-4.70333e-09
-4.6981e-09
-4.69266e-09
-4.68699e-09
-4.68108e-09
-4.67494e-09
-4.66857e-09
-4.66197e-09
-4.65513e-09
-4.64805e-09
-4.64074e-09
-4.63319e-09
-4.62542e-09
-4.6174e-09
-4.60916e-09
-4.60069e-09
-4.59199e-09
-4.58307e-09
-4.57393e-09
-4.56458e-09
-4.55501e-09
-4.54522e-09
-4.53524e-09
-4.52505e-09
-4.51466e-09
-4.50408e-09
-4.49331e-09
-4.48235e-09
-4.47121e-09
-4.4599e-09
-4.44841e-09
-4.43676e-09
-4.42494e-09
-4.41297e-09
-4.40083e-09
-4.38854e-09
-4.3761e-09
-4.36351e-09
-4.35078e-09
-4.3379e-09
-4.32489e-09
-4.31172e-09
-4.29842e-09
-4.28497e-09
-4.27138e-09
-4.25764e-09
-4.24375e-09
-4.22971e-09
-4.2155e-09
-4.20111e-09
-4.18655e-09
-4.17179e-09
-4.15683e-09
-4.14164e-09
-4.12622e-09
-4.11053e-09
-4.09455e-09
-4.07827e-09
-4.06164e-09
-4.04463e-09
-4.0272e-09
-4.0093e-09
-3.9909e-09
-3.97192e-09
-3.95232e-09
-3.93202e-09
-3.91094e-09
-3.889e-09
-3.86611e-09
-3.84216e-09
-3.81705e-09
-3.79064e-09
-3.76281e-09
-3.73339e-09
-3.70224e-09
-3.66917e-09
-3.63398e-09
-3.59649e-09
-3.55645e-09
-3.51362e-09
-3.46776e-09
-3.41858e-09
-3.3658e-09
-3.30909e-09
-3.24814e-09
-3.1826e-09
-3.11212e-09
-3.03634e-09
-2.95488e-09
-2.86736e-09
-2.7734e-09
-2.67264e-09
-2.56469e-09
-2.44922e-09
-2.32589e-09
-2.19441e-09
-2.05451e-09
-1.906e-09
-1.74872e-09
-1.58258e-09
-1.40758e-09
-1.22381e-09
-1.0315e-09
-8.30972e-10
-6.22757e-10
-4.07577e-10
-1.86421e-10
3.93991e-11
2.68163e-10
4.97658e-10
7.25091e-10
9.47012e-10
1.1593e-09
1.35719e-09
1.53548e-09
1.68881e-09
1.81211e-09
1.90112e-09
1.95285e-09
1.96581e-09
1.93968e-09
1.87456e-09
1.7721e-09
1.64053e-09
1.48127e-09
1.24404e-09
8.67896e-10
4.65249e-10
3.72299e-10
3.75654e-10
3.0212e-10
1.43797e-10
1.31023e-10
2.53645e-10
3.69154e-10
4.54644e-10
5.37299e-10
6.26339e-10
7.26188e-10
8.40844e-10
9.72355e-10
1.11995e-09
1.2805e-09
1.44954e-09
1.62208e-09
1.79337e-09
1.95927e-09
2.11644e-09
2.26233e-09
2.39513e-09
2.51362e-09
2.61705e-09
2.70502e-09
2.77739e-09
2.83422e-09
2.87571e-09
2.90218e-09
2.91404e-09
2.91175e-09
2.89585e-09
2.86692e-09
2.82556e-09
2.77244e-09
2.7082e-09
2.63354e-09
2.54914e-09
2.45571e-09
2.35392e-09
2.24447e-09
2.12804e-09
2.00525e-09
1.87677e-09
1.74321e-09
1.60514e-09
1.46315e-09
1.31777e-09
1.16953e-09
1.01889e-09
8.66332e-10
7.12284e-10
5.57156e-10
4.01332e-10
2.45171e-10
8.9008e-11
-6.68428e-11
-2.22091e-10
-3.76466e-10
-5.29715e-10
-6.81607e-10
-8.31927e-10
-9.80477e-10
-1.12707e-09
-1.27155e-09