/*--------------------------------*- C++ -*----------------------------------*\
| =========                 |                                                 |
| \\      /  F ield         | OpenFOAM: The Open Source CFD Toolbox           |
|  \\    /   O peration     | Version:  2112                                  |
|   \\  /    A nd           | Website:  www.openfoam.com                      |
|    \\/     M anipulation  |                                                 |
\*---------------------------------------------------------------------------*/
FoamFile
{
    version     2.0;
    format      ascii;
    arch        "LSB;label=32;scalar=64";
    class       surfaceScalarField;
    location    "6";
    object      phi;
}
// * * * * * * * * * * * * * * * * * * * * * * * * * * * * * * * * * * * * * //

dimensions      [0 3 -1 0 0 0 0];

oriented        oriented;

internalField   nonuniform List<scalar> 
50800
(
0.00047108
1.76306e-12
0.00047108
-9.38611e-13
0.00047108
-2.65204e-12
0.00047108
-3.18379e-12
0.00047108
-3.1191e-12
0.00047108
-2.87484e-12
0.00047108
-2.58611e-12
0.00047108
-2.29497e-12
0.00047108
-2.02257e-12
0.00047108
-1.7747e-12
0.00047108
-1.55224e-12
0.00047108
-1.35444e-12
0.00047108
-1.17972e-12
0.00047108
-1.02596e-12
0.00047108
-8.90742e-13
0.00047108
-7.71597e-13
0.00047108
-6.66222e-13
0.00047108
-5.72591e-13
0.00047108
-4.89001e-13
0.00047108
-4.14055e-13
0.00047108
-3.46627e-13
0.00047108
-2.85798e-13
0.00047108
-2.30817e-13
0.00047108
-1.81053e-13
0.00047108
-1.3597e-13
0.00047108
-9.51059e-14
0.00047108
-5.81528e-14
0.00047108
-2.49066e-14
0.00047108
6.73122e-15
0.00047108
3.3806e-14
0.00047108
5.89319e-14
0.00047108
8.17634e-14
0.00047108
1.0248e-13
0.00047108
1.2127e-13
0.00047108
1.383e-13
0.00047108
1.53719e-13
0.00047108
1.67662e-13
0.00047108
1.80247e-13
0.00047108
1.91582e-13
0.00047108
2.01764e-13
0.00047108
2.1088e-13
0.00047108
2.19007e-13
0.00047108
2.26217e-13
0.00047108
2.32575e-13
0.00047108
2.38139e-13
0.00047108
2.42963e-13
0.00047108
2.47096e-13
0.00047108
2.50583e-13
0.00047108
2.53466e-13
0.00047108
2.55784e-13
0.00047108
2.57572e-13
0.00047108
2.58864e-13
0.00047108
2.59689e-13
0.00047108
2.60077e-13
0.00047108
2.60055e-13
0.00047108
2.59645e-13
0.00047108
2.58874e-13
0.00047108
2.57763e-13
0.00047108
2.56331e-13
0.00047108
2.54599e-13
0.00047108
2.52584e-13
0.00047108
2.50306e-13
0.00047108
2.47778e-13
0.00047108
2.45018e-13
0.00047108
2.42041e-13
0.00047108
2.38859e-13
0.00047108
2.35489e-13
0.00047108
2.31942e-13
0.00047108
2.28231e-13
0.00047108
2.24368e-13
0.00047108
2.20364e-13
0.00047108
2.16233e-13
0.00047108
2.11984e-13
0.00047108
2.07629e-13
0.00047108
2.03177e-13
0.00047108
1.98637e-13
0.00047108
1.94022e-13
0.00047108
1.8934e-13
0.00047108
1.846e-13
0.00047108
1.79812e-13
0.00047108
1.74983e-13
0.00047108
1.70124e-13
0.00047108
1.65242e-13
0.00047108
1.60346e-13
0.00047108
1.55444e-13
0.00047108
1.50543e-13
0.00047108
1.45651e-13
0.00047108
1.40776e-13
0.00047108
1.35926e-13
0.00047108
1.31105e-13
0.00047108
1.2632e-13
0.00047108
1.2158e-13
0.00047108
1.16891e-13
0.00047108
1.12257e-13
0.00047108
1.07683e-13
0.00047108
1.03176e-13
0.00047108
9.87437e-14
0.00047108
9.43865e-14
0.00047108
9.01127e-14
0.00047108
8.59247e-14
0.00047108
8.18245e-14
0.00047108
7.78212e-14
0.00047108
7.39154e-14
0.00047108
7.01107e-14
0.00047108
6.64112e-14
0.00047108
6.28155e-14
0.00047108
5.93285e-14
0.00047108
5.59555e-14
0.00047108
5.26956e-14
0.00047108
4.95489e-14
0.00047108
4.6518e-14
0.00047108
4.36022e-14
0.00047108
4.08065e-14
0.00047108
3.81296e-14
0.00047108
3.55678e-14
0.00047108
3.31247e-14
0.00047108
3.08001e-14
0.00047108
2.8593e-14
0.00047108
2.65004e-14
0.00047108
2.45229e-14
0.00047108
2.26608e-14
0.00047108
2.09087e-14
0.00047108
1.9268e-14
0.00047108
1.77385e-14
0.00047108
1.63125e-14
0.00047108
1.49891e-14
0.00047108
1.37678e-14
0.00047108
1.26476e-14
0.00047108
1.16219e-14
0.00047108
1.0688e-14
0.00047108
9.84534e-15
0.00047108
9.08863e-15
0.00047108
8.41659e-15
0.00047108
7.8248e-15
0.00047108
7.30883e-15
0.00047108
6.86637e-15
0.00047108
6.49168e-15
0.00047108
6.18592e-15
0.00047108
5.94371e-15
0.00047108
5.75665e-15
0.00047108
5.62654e-15
0.00047108
5.54925e-15
0.00047108
5.52041e-15
0.00047108
5.53473e-15
0.00047108
5.59082e-15
0.00047108
5.68411e-15
0.00047108
5.80908e-15
0.00047108
5.96873e-15
0.00047108
6.15612e-15
0.00047108
6.36495e-15
0.00047108
6.59579e-15
0.00047108
6.84408e-15
0.00047108
7.10942e-15
0.00047108
7.38728e-15
0.00047108
7.67214e-15
0.00047108
7.96506e-15
0.00047108
8.26216e-15
0.00047108
8.56361e-15
0.00047108
8.86497e-15
0.00047108
9.16211e-15
0.00047108
9.45641e-15
0.00047108
9.74255e-15
0.00047108
1.00231e-14
0.00047108
1.02954e-14
0.00047108
1.05517e-14
0.00047108
1.07993e-14
0.00047108
1.10339e-14
0.00047108
1.12521e-14
0.00047108
1.14558e-14
0.00047108
1.16425e-14
0.00047108
1.18111e-14
0.00047108
1.19607e-14
0.00047108
1.20957e-14
0.00047108
1.22075e-14
0.00047108
1.22992e-14
0.00047108
1.23763e-14
0.00047108
1.24273e-14
0.00047108
1.24608e-14
0.00047108
1.24764e-14
0.00047108
1.24695e-14
0.00047108
1.24421e-14
0.00047108
1.2394e-14
0.00047108
1.23294e-14
0.00047108
1.22458e-14
0.00047108
1.21417e-14
0.00047108
1.20198e-14
0.00047108
1.18775e-14
0.00047108
1.17208e-14
0.00047108
1.15486e-14
0.00047108
1.13548e-14
0.00047108
1.11489e-14
0.00047108
1.09287e-14
0.00047108
1.06924e-14
0.00047108
1.04434e-14
0.00047108
1.01806e-14
0.00047108
9.90461e-15
0.00047108
9.6161e-15
0.00047108
9.32038e-15
0.00047108
9.01037e-15
0.00047108
8.68958e-15
0.00047108
8.3651e-15
0.00047108
8.02677e-15
0.00047108
7.68192e-15
0.00047108
7.33284e-15
0.00047108
6.97373e-15
0.00047108
6.60957e-15
0.00047108
6.2399e-15
0.00047108
5.86658e-15
0.00047108
5.48842e-15
0.00047108
5.10486e-15
0.00047108
4.71978e-15
0.00047108
4.32961e-15
0.00047108
3.93791e-15
0.00047108
3.54442e-15
0.00047108
3.14787e-15
0.00047108
2.75339e-15
0.00047108
2.356e-15
0.00047108
1.95713e-15
0.00047108
1.55624e-15
0.00047108
1.1567e-15
0.00047108
7.61194e-16
0.00047108
3.61341e-16
0.00047108
-3.52019e-17
0.00047108
-4.35604e-16
0.00047108
-8.3584e-16
0.00047108
-1.22669e-15
0.00047108
-1.62541e-15
0.00047108
-2.02015e-15
0.00047108
-2.41408e-15
0.00047108
-2.81036e-15
0.00047108
-3.19806e-15
0.00047108
-3.59051e-15
0.00047108
-3.98327e-15
0.00047108
-4.37095e-15
0.00047108
-4.76121e-15
0.00047108
-5.14884e-15
0.00047108
-5.53806e-15
0.00047108
-5.92691e-15
0.00047108
-6.31511e-15
0.00047108
-6.7045e-15
0.00047108
-7.09099e-15
0.00047108
-7.48046e-15
0.00047108
-7.8713e-15
0.00047108
-8.26596e-15
0.00047108
-8.66085e-15
0.00047108
-9.05373e-15
0.00047108
-9.45655e-15
0.00047108
-9.85624e-15
0.00047108
-1.02647e-14
0.00047108
-1.06792e-14
0.00047108
-1.10899e-14
0.00047108
-1.15167e-14
0.00047108
-1.19474e-14
0.00047108
-1.23859e-14
0.00047108
-1.28384e-14
0.00047108
-1.3294e-14
0.00047108
-1.37678e-14
0.00047108
-1.42581e-14
0.00047108
-1.47597e-14
0.00047108
-1.52827e-14
0.00047108
-1.58244e-14
0.00047108
-1.63919e-14
0.00047108
-1.69873e-14
0.00047108
-1.76117e-14
0.00047108
-1.82718e-14
0.00047108
-1.8969e-14
0.00047108
-1.97111e-14
0.00047108
-2.05034e-14
0.00047108
-2.13529e-14
0.00047108
-2.22666e-14
0.00047108
-2.32464e-14
0.00047108
-2.43125e-14
0.00047108
-2.54666e-14
0.00047108
-2.67261e-14
0.00047108
-2.81021e-14
0.00047108
-2.95999e-14
0.00047108
-3.12509e-14
0.00047108
-3.30635e-14
0.00047108
-3.50602e-14
0.00047108
-3.72646e-14
0.00047108
-3.96917e-14
0.00047108
-4.2378e-14
0.00047108
-4.53508e-14
0.00047108
-4.8637e-14
0.00047108
-5.2273e-14
0.00047108
-5.62914e-14
0.00047108
-6.07369e-14
0.00047108
-6.56473e-14
0.00047108
-7.10659e-14
0.00047108
-7.70351e-14
0.00047108
-8.36037e-14
0.00047108
-9.08274e-14
0.00047108
-9.87486e-14
0.00047108
-1.07423e-13
0.00047108
-1.16904e-13
0.00047108
-1.27236e-13
0.00047108
-1.38474e-13
0.00047108
-1.50642e-13
0.00047108
-1.63757e-13
0.00047108
-1.77789e-13
0.00047108
-1.92634e-13
0.00047108
-2.08107e-13
0.00047108
-2.23837e-13
0.00047108
-2.39215e-13
0.00047108
-2.53261e-13
0.00047108
-2.64442e-13
0.00047108
-2.70449e-13
0.00047108
-2.67835e-13
0.00047108
-2.51328e-13
0.00047108
-2.127e-13
0.00047108
-1.39169e-13
0.00047108
7.08689e-15
0.00047108
2.15184e-13
0.00047108
5.65863e-13
0.00047108
1.10692e-12
0.00047108
1.89919e-12
0.00047108
2.96245e-12
0.00047108
4.13835e-12
0.00047108
4.80176e-12
4.05786e-12
0.00138966
5.70157e-12
0.00138966
-1.47722e-12
0.00138966
-6.73441e-12
0.00138966
-9.06399e-12
0.00138966
-9.52136e-12
0.00138966
-9.20581e-12
0.00138966
-8.57606e-12
0.00138966
-7.82105e-12
0.00138966
-7.04477e-12
0.00138966
-6.29473e-12
0.00138966
-5.59151e-12
0.00138966
-4.94331e-12
0.00138966
-4.35215e-12
0.00138966
-3.8166e-12
0.00138966
-3.33331e-12
0.00138966
-2.89802e-12
0.00138966
-2.50617e-12
0.00138966
-2.15328e-12
0.00138966
-1.83519e-12
0.00138966
-1.54818e-12
0.00138966
-1.28891e-12
0.00138966
-1.0545e-12
0.00138966
-8.42404e-13
0.00138966
-6.50385e-13
0.00138966
-4.76478e-13
0.00138966
-3.18942e-13
0.00138966
-1.76239e-13
0.00138966
-4.70488e-14
0.00138966
7.039e-14
0.00138966
1.76398e-13
0.00138966
2.72388e-13
0.00138966
3.59279e-13
0.00138966
4.37849e-13
0.00138966
5.08824e-13
0.00138966
5.7286e-13
0.00138966
6.30548e-13
0.00138966
6.82422e-13
0.00138966
7.28963e-13
0.00138966
7.70602e-13
0.00138966
8.07732e-13
0.00138966
8.40706e-13
0.00138966
8.69843e-13
0.00138966
8.95434e-13
0.00138966
9.17742e-13
0.00138966
9.37005e-13
0.00138966
9.53443e-13
0.00138966
9.67254e-13
0.00138966
9.78619e-13
0.00138966
9.87705e-13
0.00138966
9.94666e-13
0.00138966
9.99644e-13
0.00138966
1.00277e-12
0.00138966
1.00416e-12
0.00138966
1.00392e-12
0.00138966
1.00217e-12
0.00138966
9.98996e-13
0.00138966
9.94488e-13
0.00138966
9.88733e-13
0.00138966
9.81806e-13
0.00138966
9.73782e-13
0.00138966
9.64732e-13
0.00138966
9.54724e-13
0.00138966
9.43817e-13
0.00138966
9.32071e-13
0.00138966
9.19545e-13
0.00138966
9.0629e-13
0.00138966
8.92364e-13
0.00138966
8.77811e-13
0.00138966
8.62679e-13
0.00138966
8.47016e-13
0.00138966
8.30866e-13
0.00138966
8.14276e-13
0.00138966
7.97284e-13
0.00138966
7.79932e-13
0.00138966
7.62258e-13
0.00138966
7.44299e-13
0.00138966
7.26097e-13
0.00138966
7.07685e-13
0.00138966
6.89098e-13
0.00138966
6.70372e-13
0.00138966
6.51538e-13
0.00138966
6.32631e-13
0.00138966
6.13683e-13
0.00138966
5.94725e-13
0.00138966
5.75786e-13
0.00138966
5.56894e-13
0.00138966
5.38078e-13
0.00138966
5.19369e-13
0.00138966
5.0079e-13
0.00138966
4.82364e-13
0.00138966
4.64118e-13
0.00138966
4.46078e-13
0.00138966
4.28265e-13
0.00138966
4.107e-13
0.00138966
3.93401e-13
0.00138966
3.7639e-13
0.00138966
3.59688e-13
0.00138966
3.4331e-13
0.00138966
3.27273e-13
0.00138966
3.11591e-13
0.00138966
2.96278e-13
0.00138966
2.8135e-13
0.00138966
2.66818e-13
0.00138966
2.52694e-13
0.00138966
2.38986e-13
0.00138966
2.25698e-13
0.00138966
2.12842e-13
0.00138966
2.00429e-13
0.00138966
1.88462e-13
0.00138966
1.7694e-13
0.00138966
1.6587e-13
0.00138966
1.5525e-13
0.00138966
1.45088e-13
0.00138966
1.35382e-13
0.00138966
1.26127e-13
0.00138966
1.17325e-13
0.00138966
1.08972e-13
0.00138966
1.01065e-13
0.00138966
9.35975e-14
0.00138966
8.65656e-14
0.00138966
7.99623e-14
0.00138966
7.37776e-14
0.00138966
6.8011e-14
0.00138966
6.26516e-14
0.00138966
5.76828e-14
0.00138966
5.30985e-14
0.00138966
4.8891e-14
0.00138966
4.50496e-14
0.00138966
4.15595e-14
0.00138966
3.84087e-14
0.00138966
3.5588e-14
0.00138966
3.30817e-14
0.00138966
3.08792e-14
0.00138966
2.89665e-14
0.00138966
2.73276e-14
0.00138966
2.59515e-14
0.00138966
2.4822e-14
0.00138966
2.39313e-14
0.00138966
2.32623e-14
0.00138966
2.2795e-14
0.00138966
2.25231e-14
0.00138966
2.2431e-14
0.00138966
2.25085e-14
0.00138966
2.27376e-14
0.00138966
2.31032e-14
0.00138966
2.35946e-14
0.00138966
2.41968e-14
0.00138966
2.49058e-14
0.00138966
2.57048e-14
0.00138966
2.65768e-14
0.00138966
2.75142e-14
0.00138966
2.85067e-14
0.00138966
2.95456e-14
0.00138966
3.06163e-14
0.00138966
3.17088e-14
0.00138966
3.28187e-14
0.00138966
3.39343e-14
0.00138966
3.50471e-14
0.00138966
3.61525e-14
0.00138966
3.72363e-14
0.00138966
3.82947e-14
0.00138966
3.93208e-14
0.00138966
4.03135e-14
0.00138966
4.12608e-14
0.00138966
4.21555e-14
0.00138966
4.30035e-14
0.00138966
4.37913e-14
0.00138966
4.45197e-14
0.00138966
4.5186e-14
0.00138966
4.5784e-14
0.00138966
4.63108e-14
0.00138966
4.67645e-14
0.00138966
4.71516e-14
0.00138966
4.74608e-14
0.00138966
4.76931e-14
0.00138966
4.78554e-14
0.00138966
4.79341e-14
0.00138966
4.79404e-14
0.00138966
4.78739e-14
0.00138966
4.77274e-14
0.00138966
4.7507e-14
0.00138966
4.72125e-14
0.00138966
4.68487e-14
0.00138966
4.64158e-14
0.00138966
4.59125e-14
0.00138966
4.53412e-14
0.00138966
4.47021e-14
0.00138966
4.40058e-14
0.00138966
4.32473e-14
0.00138966
4.24252e-14
0.00138966
4.15526e-14
0.00138966
4.06255e-14
0.00138966
3.9648e-14
0.00138966
3.86239e-14
0.00138966
3.7551e-14
0.00138966
3.64337e-14
0.00138966
3.52732e-14
0.00138966
3.40821e-14
0.00138966
3.28518e-14
0.00138966
3.1584e-14
0.00138966
3.02934e-14
0.00138966
2.89712e-14
0.00138966
2.76218e-14
0.00138966
2.62525e-14
0.00138966
2.48606e-14
0.00138966
2.34507e-14
0.00138966
2.20228e-14
0.00138966
2.05837e-14
0.00138966
1.91288e-14
0.00138966
1.76621e-14
0.00138966
1.61895e-14
0.00138966
1.47052e-14
0.00138966
1.3219e-14
0.00138966
1.17258e-14
0.00138966
1.02296e-14
0.00138966
8.73852e-15
0.00138966
7.24047e-15
0.00138966
5.74362e-15
0.00138966
4.24714e-15
0.00138966
2.75356e-15
0.00138966
1.27052e-15
0.00138966
-2.14239e-16
0.00138966
-1.69348e-15
0.00138966
-3.17156e-15
0.00138966
-4.64536e-15
0.00138966
-6.10182e-15
0.00138966
-7.56187e-15
0.00138966
-9.01543e-15
0.00138966
-1.04625e-14
0.00138966
-1.1905e-14
0.00138966
-1.33338e-14
0.00138966
-1.47636e-14
0.00138966
-1.61886e-14
0.00138966
-1.76063e-14
0.00138966
-1.90232e-14
0.00138966
-2.04324e-14
0.00138966
-2.18425e-14
0.00138966
-2.32507e-14
0.00138966
-2.46599e-14
0.00138966
-2.60679e-14
0.00138966
-2.74721e-14
0.00138966
-2.88875e-14
0.00138966
-3.03064e-14
0.00138966
-3.17367e-14
0.00138966
-3.31767e-14
0.00138966
-3.46198e-14
0.00138966
-3.60887e-14
0.00138966
-3.75699e-14
0.00138966
-3.90772e-14
0.00138966
-4.06131e-14
0.00138966
-4.21662e-14
0.00138966
-4.37661e-14
0.00138966
-4.54055e-14
0.00138966
-4.70899e-14
0.00138966
-4.88317e-14
0.00138966
-5.06259e-14
0.00138966
-5.2496e-14
0.00138966
-5.44475e-14
0.00138966
-5.64823e-14
0.00138966
-5.86198e-14
0.00138966
-6.08655e-14
0.00138966
-6.32411e-14
0.00138966
-6.57609e-14
0.00138966
-6.84378e-14
0.00138966
-7.12918e-14
0.00138966
-7.4341e-14
0.00138966
-7.76164e-14
0.00138966
-8.11344e-14
0.00138966
-8.49294e-14
0.00138966
-8.90298e-14
0.00138966
-9.34573e-14
0.00138966
-9.82682e-14
0.00138966
-1.03492e-13
0.00138966
-1.09176e-13
0.00138966
-1.15369e-13
0.00138966
-1.22109e-13
0.00138966
-1.29477e-13
0.00138966
-1.37522e-13
0.00138966
-1.46311e-13
0.00138966
-1.55925e-13
0.00138966
-1.6643e-13
0.00138966
-1.77921e-13
0.00138966
-1.9049e-13
0.00138966
-2.04228e-13
0.00138966
-2.19237e-13
0.00138966
-2.3562e-13
0.00138966
-2.53502e-13
0.00138966
-2.72989e-13
0.00138966
-2.942e-13
0.00138966
-3.17249e-13
0.00138966
-3.42249e-13
0.00138966
-3.69322e-13
0.00138966
-3.98553e-13
0.00138966
-4.30039e-13
0.00138966
-4.6384e-13
0.00138966
-4.99973e-13
0.00138966
-5.38435e-13
0.00138966
-5.79114e-13
0.00138966
-6.21802e-13
0.00138966
-6.66122e-13
0.00138966
-7.11435e-13
0.00138966
-7.56773e-13
0.00138966
-8.00583e-13
0.00138966
-8.40508e-13
0.00138966
-8.72989e-13
0.00138966
-8.92637e-13
0.00138966
-8.91372e-13
0.00138966
-8.57057e-13
0.00138966
-7.7141e-13
0.00138966
-6.06808e-13
0.00138966
-3.21173e-13
0.00138966
1.48271e-13
0.00138966
8.78916e-13
0.00138966
1.9949e-12
0.00138966
3.63203e-12
0.00138966
5.90663e-12
0.00138966
8.79433e-12
0.00138966
1.17712e-11
0.00138966
1.33551e-11
1.14914e-11
0.00228459
1.05876e-11
0.00228459
-6.42116e-13
0.00228459
-9.76703e-12
0.00228459
-1.4667e-11
0.00228459
-1.6422e-11
0.00228459
-1.65891e-11
0.00228459
-1.59585e-11
0.00228459
-1.49168e-11
0.00228459
-1.36989e-11
0.00228459
-1.24324e-11
0.00228459
-1.11854e-11
0.00228459
-9.99407e-12
0.00228459
-8.8766e-12
0.00228459
-7.84073e-12
0.00228459
-6.88794e-12
0.00228459
-6.01598e-12
0.00228459
-5.22059e-12
0.00228459
-4.49647e-12
0.00228459
-3.83799e-12
0.00228459
-3.23956e-12
0.00228459
-2.69588e-12
0.00228459
-2.202e-12
0.00228459
-1.75341e-12
0.00228459
-1.34597e-12
0.00228459
-9.75975e-13
0.00228459
-6.40033e-13
0.00228459
-3.35092e-13
0.00228459
-5.83139e-14
0.00228459
1.92643e-13
0.00228459
4.20172e-13
0.00228459
6.26287e-13
0.00228459
8.12866e-13
0.00228459
9.81587e-13
0.00228459
1.13397e-12
0.00228459
1.2714e-12
0.00228459
1.39511e-12
0.00228459
1.50624e-12
0.00228459
1.60581e-12
0.00228459
1.69475e-12
0.00228459
1.7739e-12
0.00228459
1.84401e-12
0.00228459
1.90579e-12
0.00228459
1.95985e-12
0.00228459
2.00677e-12
0.00228459
2.04708e-12
0.00228459
2.08125e-12
0.00228459
2.10971e-12
0.00228459
2.13286e-12
0.00228459
2.15107e-12
0.00228459
2.16467e-12
0.00228459
2.17397e-12
0.00228459
2.17926e-12
0.00228459
2.1808e-12
0.00228459
2.17883e-12
0.00228459
2.17358e-12
0.00228459
2.16526e-12
0.00228459
2.15407e-12
0.00228459
2.14019e-12
0.00228459
2.1238e-12
0.00228459
2.10506e-12
0.00228459
2.08412e-12
0.00228459
2.06113e-12
0.00228459
2.03622e-12
0.00228459
2.00953e-12
0.00228459
1.98118e-12
0.00228459
1.95129e-12
0.00228459
1.91997e-12
0.00228459
1.88735e-12
0.00228459
1.85351e-12
0.00228459
1.81856e-12
0.00228459
1.7826e-12
0.00228459
1.74574e-12
0.00228459
1.70805e-12
0.00228459
1.66962e-12
0.00228459
1.63055e-12
0.00228459
1.59092e-12
0.00228459
1.55081e-12
0.00228459
1.51029e-12
0.00228459
1.46945e-12
0.00228459
1.42837e-12
0.00228459
1.3871e-12
0.00228459
1.34573e-12
0.00228459
1.30433e-12
0.00228459
1.26296e-12
0.00228459
1.22168e-12
0.00228459
1.18056e-12
0.00228459
1.13966e-12
0.00228459
1.09904e-12
0.00228459
1.05875e-12
0.00228459
1.01885e-12
0.00228459
9.79393e-13
0.00228459
9.40427e-13
0.00228459
9.01999e-13
0.00228459
8.64157e-13
0.00228459
8.2694e-13
0.00228459
7.90387e-13
0.00228459
7.54547e-13
0.00228459
7.19447e-13
0.00228459
6.85124e-13
0.00228459
6.51609e-13
0.00228459
6.1893e-13
0.00228459
5.87115e-13
0.00228459
5.56187e-13
0.00228459
5.26169e-13
0.00228459
4.97079e-13
0.00228459
4.68931e-13
0.00228459
4.41738e-13
0.00228459
4.15521e-13
0.00228459
3.90284e-13
0.00228459
3.6603e-13
0.00228459
3.42767e-13
0.00228459
3.20495e-13
0.00228459
2.99218e-13
0.00228459
2.78934e-13
0.00228459
2.59635e-13
0.00228459
2.41316e-13
0.00228459
2.23969e-13
0.00228459
2.07587e-13
0.00228459
1.92155e-13
0.00228459
1.77658e-13
0.00228459
1.6408e-13
0.00228459
1.51404e-13
0.00228459
1.39617e-13
0.00228459
1.28696e-13
0.00228459
1.18612e-13
0.00228459
1.09346e-13
0.00228459
1.00877e-13
0.00228459
9.31823e-14
0.00228459
8.62287e-14
0.00228459
7.99908e-14
0.00228459
7.4444e-14
0.00228459
6.95574e-14
0.00228459
6.53034e-14
0.00228459
6.1653e-14
0.00228459
5.85734e-14
0.00228459
5.60381e-14
0.00228459
5.40136e-14
0.00228459
5.24774e-14
0.00228459
5.13942e-14
0.00228459
5.07272e-14
0.00228459
5.04544e-14
0.00228459
5.05463e-14
0.00228459
5.09765e-14
0.00228459
5.17115e-14
0.00228459
5.27182e-14
0.00228459
5.39735e-14
0.00228459
5.54493e-14
0.00228459
5.71251e-14
0.00228459
5.89727e-14
0.00228459
6.09616e-14
0.00228459
6.3068e-14
0.00228459
6.52741e-14
0.00228459
6.75597e-14
0.00228459
6.9894e-14
0.00228459
7.22605e-14
0.00228459
7.46451e-14
0.00228459
7.70236e-14
0.00228459
7.93812e-14
0.00228459
8.17062e-14
0.00228459
8.39749e-14
0.00228459
8.61735e-14
0.00228459
8.82936e-14
0.00228459
9.0324e-14
0.00228459
9.2247e-14
0.00228459
9.40563e-14
0.00228459
9.57468e-14
0.00228459
9.73012e-14
0.00228459
9.87232e-14
0.00228459
1.00002e-13
0.00228459
1.01128e-13
0.00228459
1.02099e-13
0.00228459
1.02909e-13
0.00228459
1.03566e-13
0.00228459
1.0406e-13
0.00228459
1.04387e-13
0.00228459
1.04554e-13
0.00228459
1.0455e-13
0.00228459
1.04383e-13
0.00228459
1.04059e-13
0.00228459
1.0357e-13
0.00228459
1.02923e-13
0.00228459
1.02119e-13
0.00228459
1.01164e-13
0.00228459
1.00064e-13
0.00228459
9.8818e-14
0.00228459
9.74292e-14
0.00228459
9.59003e-14
0.00228459
9.42482e-14
0.00228459
9.24674e-14
0.00228459
9.05622e-14
0.00228459
8.85477e-14
0.00228459
8.64198e-14
0.00228459
8.41902e-14
0.00228459
8.18647e-14
0.00228459
7.94425e-14
0.00228459
7.69313e-14
0.00228459
7.43363e-14
0.00228459
7.16711e-14
0.00228459
6.89372e-14
0.00228459
6.6132e-14
0.00228459
6.3271e-14
0.00228459
6.03573e-14
0.00228459
5.73919e-14
0.00228459
5.43845e-14
0.00228459
5.13405e-14
0.00228459
4.82626e-14
0.00228459
4.51525e-14
0.00228459
4.20226e-14
0.00228459
3.88662e-14
0.00228459
3.56931e-14
0.00228459
3.2511e-14
0.00228459
2.93143e-14
0.00228459
2.61182e-14
0.00228459
2.29145e-14
0.00228459
1.97104e-14
0.00228459
1.65177e-14
0.00228459
1.33234e-14
0.00228459
1.0137e-14
0.00228459
6.96131e-15
0.00228459
3.79697e-15
0.00228459
6.53599e-16
0.00228459
-2.47759e-15
0.00228459
-5.59387e-15
0.00228459
-8.69597e-15
0.00228459
-1.17791e-14
0.00228459
-1.48322e-14
0.00228459
-1.78742e-14
0.00228459
-2.08954e-14
0.00228459
-2.38956e-14
0.00228459
-2.68751e-14
0.00228459
-2.98277e-14
0.00228459
-3.27681e-14
0.00228459
-3.56871e-14
0.00228459
-3.85887e-14
0.00228459
-4.14761e-14
0.00228459
-4.43414e-14
0.00228459
-4.71959e-14
0.00228459
-5.00414e-14
0.00228459
-5.28788e-14
0.00228459
-5.5704e-14
0.00228459
-5.85197e-14
0.00228459
-6.13459e-14
0.00228459
-6.41746e-14
0.00228459
-6.70137e-14
0.00228459
-6.98656e-14
0.00228459
-7.27275e-14
0.00228459
-7.56252e-14
0.00228459
-7.85529e-14
0.00228459
-8.15233e-14
0.00228459
-8.45486e-14
0.00228459
-8.76209e-14
0.00228459
-9.07766e-14
0.00228459
-9.4015e-14
0.00228459
-9.735e-14
0.00228459
-1.00804e-13
0.00228459
-1.04382e-13
0.00228459
-1.08118e-13
0.00228459
-1.1203e-13
0.00228459
-1.16134e-13
0.00228459
-1.20462e-13
0.00228459
-1.25038e-13
0.00228459
-1.29903e-13
0.00228459
-1.3509e-13
0.00228459
-1.40635e-13
0.00228459
-1.46581e-13
0.00228459
-1.52972e-13
0.00228459
-1.59869e-13
0.00228459
-1.67322e-13
0.00228459
-1.754e-13
0.00228459
-1.84166e-13
0.00228459
-1.93686e-13
0.00228459
-2.04057e-13
0.00228459
-2.15361e-13
0.00228459
-2.27697e-13
0.00228459
-2.41166e-13
0.00228459
-2.5587e-13
0.00228459
-2.71958e-13
0.00228459
-2.89549e-13
0.00228459
-3.08777e-13
0.00228459
-3.29808e-13
0.00228459
-3.52794e-13
0.00228459
-3.77923e-13
0.00228459
-4.05377e-13
0.00228459
-4.35348e-13
0.00228459
-4.68039e-13
0.00228459
-5.03661e-13
0.00228459
-5.4245e-13
0.00228459
-5.8462e-13
0.00228459
-6.30395e-13
0.00228459
-6.79995e-13
0.00228459
-7.33619e-13
0.00228459
-7.91471e-13
0.00228459
-8.53701e-13
0.00228459
-9.20434e-13
0.00228459
-9.91715e-13
0.00228459
-1.0675e-12
0.00228459
-1.14763e-12
0.00228459
-1.23176e-12
0.00228459
-1.31928e-12
0.00228459
-1.40923e-12
0.00228459
-1.50011e-12
0.00228459
-1.5897e-12
0.00228459
-1.67469e-12
0.00228459
-1.75017e-12
0.00228459
-1.80892e-12
0.00228459
-1.84031e-12
0.00228459
-1.82871e-12
0.00228459
-1.75108e-12
0.00228459
-1.57366e-12
0.00228459
-1.24711e-12
0.00228459
-7.00034e-13
0.00228459
1.69453e-13
0.00228459
1.49025e-12
0.00228459
3.44084e-12
0.00228459
6.20418e-12
0.00228459
9.90517e-12
0.00228459
1.44282e-11
0.00228459
1.89762e-11
0.00228459
2.14705e-11
1.90116e-11
0.00315581
1.50968e-11
0.00315581
1.22366e-12
0.00315581
-1.11233e-11
0.00315581
-1.87042e-11
0.00315581
-2.22154e-11
0.00315581
-2.33699e-11
0.00315581
-2.31733e-11
0.00315581
-2.21789e-11
0.00315581
-2.07551e-11
0.00315581
-1.91262e-11
0.00315581
-1.74261e-11
0.00315581
-1.57346e-11
0.00315581
-1.4099e-11
0.00315581
-1.25464e-11
0.00315581
-1.10903e-11
0.00315581
-9.7362e-12
0.00315581
-8.48441e-12
0.00315581
-7.33191e-12
0.00315581
-6.2739e-12
0.00315581
-5.30465e-12
0.00315581
-4.41804e-12
0.00315581
-3.60792e-12
0.00315581
-2.86835e-12
0.00315581
-2.19369e-12
0.00315581
-1.57864e-12
0.00315581
-1.01829e-12
0.00315581
-5.08123e-13
0.00315581
-4.37213e-14
0.00315581
3.78132e-13
0.00315581
7.61555e-13
0.00315581
1.10953e-12
0.00315581
1.42501e-12
0.00315581
1.71067e-12
0.00315581
1.96896e-12
0.00315581
2.2021e-12
0.00315581
2.41211e-12
0.00315581
2.60085e-12
0.00315581
2.76998e-12
0.00315581
2.92105e-12
0.00315581
3.05544e-12
0.00315581
3.17442e-12
0.00315581
3.27915e-12
0.00315581
3.37069e-12
0.00315581
3.45001e-12
0.00315581
3.51797e-12
0.00315581
3.5754e-12
0.00315581
3.62303e-12
0.00315581
3.66153e-12
0.00315581
3.69154e-12
0.00315581
3.71362e-12
0.00315581
3.7283e-12
0.00315581
3.73608e-12
0.00315581
3.73741e-12
0.00315581
3.7327e-12
0.00315581
3.72236e-12
0.00315581
3.70674e-12
0.00315581
3.68619e-12
0.00315581
3.66102e-12
0.00315581
3.63154e-12
0.00315581
3.59803e-12
0.00315581
3.56076e-12
0.00315581
3.51998e-12
0.00315581
3.47593e-12
0.00315581
3.42884e-12
0.00315581
3.37892e-12
0.00315581
3.32639e-12
0.00315581
3.27145e-12
0.00315581
3.21429e-12
0.00315581
3.15508e-12
0.00315581
3.09402e-12
0.00315581
3.03126e-12
0.00315581
2.96699e-12
0.00315581
2.90136e-12
0.00315581
2.83452e-12
0.00315581
2.76662e-12
0.00315581
2.69782e-12
0.00315581
2.62825e-12
0.00315581
2.55805e-12
0.00315581
2.48736e-12
0.00315581
2.4163e-12
0.00315581
2.34501e-12
0.00315581
2.2736e-12
0.00315581
2.20219e-12
0.00315581
2.13091e-12
0.00315581
2.05986e-12
0.00315581
1.98914e-12
0.00315581
1.91887e-12
0.00315581
1.84914e-12
0.00315581
1.78005e-12
0.00315581
1.71168e-12
0.00315581
1.64414e-12
0.00315581
1.57751e-12
0.00315581
1.51186e-12
0.00315581
1.44727e-12
0.00315581
1.38381e-12
0.00315581
1.32155e-12
0.00315581
1.26057e-12
0.00315581
1.2009e-12
0.00315581
1.14262e-12
0.00315581
1.08578e-12
0.00315581
1.0304e-12
0.00315581
9.76558e-13
0.00315581
9.24271e-13
0.00315581
8.73584e-13
0.00315581
8.24523e-13
0.00315581
7.77108e-13
0.00315581
7.31362e-13
0.00315581
6.8731e-13
0.00315581
6.44965e-13
0.00315581
6.04323e-13
0.00315581
5.65397e-13
0.00315581
5.28186e-13
0.00315581
4.92692e-13
0.00315581
4.58906e-13
0.00315581
4.26816e-13
0.00315581
3.96411e-13
0.00315581
3.67672e-13
0.00315581
3.40584e-13
0.00315581
3.15116e-13
0.00315581
2.91245e-13
0.00315581
2.68941e-13
0.00315581
2.4817e-13
0.00315581
2.28907e-13
0.00315581
2.11109e-13
0.00315581
1.94729e-13
0.00315581
1.79732e-13
0.00315581
1.66078e-13
0.00315581
1.53723e-13
0.00315581
1.42617e-13
0.00315581
1.32708e-13
0.00315581
1.23956e-13
0.00315581
1.16307e-13
0.00315581
1.09709e-13
0.00315581
1.04112e-13
0.00315581
9.94644e-14
0.00315581
9.57161e-14
0.00315581
9.28145e-14
0.00315581
9.07099e-14
0.00315581
8.93462e-14
0.00315581
8.86681e-14
0.00315581
8.86294e-14
0.00315581
8.91771e-14
0.00315581
9.027e-14
0.00315581
9.18557e-14
0.00315581
9.38726e-14
0.00315581
9.62826e-14
0.00315581
9.90432e-14
0.00315581
1.02111e-13
0.00315581
1.05439e-13
0.00315581
1.08981e-13
0.00315581
1.12699e-13
0.00315581
1.16558e-13
0.00315581
1.20523e-13
0.00315581
1.24552e-13
0.00315581
1.28609e-13
0.00315581
1.32671e-13
0.00315581
1.36704e-13
0.00315581
1.40677e-13
0.00315581
1.44572e-13
0.00315581
1.48356e-13
0.00315581
1.52002e-13
0.00315581
1.55496e-13
0.00315581
1.58821e-13
0.00315581
1.6195e-13
0.00315581
1.64872e-13
0.00315581
1.67578e-13
0.00315581
1.70042e-13
0.00315581
1.72268e-13
0.00315581
1.74241e-13
0.00315581
1.75946e-13
0.00315581
1.77382e-13
0.00315581
1.7854e-13
0.00315581
1.79426e-13
0.00315581
1.80033e-13
0.00315581
1.80355e-13
0.00315581
1.80396e-13
0.00315581
1.80149e-13
0.00315581
1.79627e-13
0.00315581
1.78832e-13
0.00315581
1.77759e-13
0.00315581
1.76421e-13
0.00315581
1.74819e-13
0.00315581
1.72959e-13
0.00315581
1.70856e-13
0.00315581
1.6851e-13
0.00315581
1.65923e-13
0.00315581
1.63109e-13
0.00315581
1.60086e-13
0.00315581
1.5685e-13
0.00315581
1.53414e-13
0.00315581
1.49793e-13
0.00315581
1.45987e-13
0.00315581
1.42015e-13
0.00315581
1.37887e-13
0.00315581
1.33603e-13
0.00315581
1.29178e-13
0.00315581
1.24619e-13
0.00315581
1.19946e-13
0.00315581
1.15166e-13
0.00315581
1.10276e-13
0.00315581
1.05296e-13
0.00315581
1.00236e-13
0.00315581
9.50988e-14
0.00315581
8.9899e-14
0.00315581
8.4645e-14
0.00315581
7.93422e-14
0.00315581
7.39976e-14
0.00315581
6.86237e-14
0.00315581
6.32195e-14
0.00315581
5.77969e-14
0.00315581
5.23643e-14
0.00315581
4.69214e-14
0.00315581
4.14858e-14
0.00315581
3.60494e-14
0.00315581
3.06232e-14
0.00315581
2.52234e-14
0.00315581
1.98335e-14
0.00315581
1.44706e-14
0.00315581
9.13753e-15
0.00315581
3.83135e-15
0.00315581
-1.43111e-15
0.00315581
-6.65645e-15
0.00315581
-1.18461e-14
0.00315581
-1.69974e-14
0.00315581
-2.21048e-14
0.00315581
-2.71565e-14
0.00315581
-3.21663e-14
0.00315581
-3.71291e-14
0.00315581
-4.20457e-14
0.00315581
-4.69102e-14
0.00315581
-5.17193e-14
0.00315581
-5.64871e-14
0.00315581
-6.12074e-14
0.00315581
-6.58826e-14
0.00315581
-7.05143e-14
0.00315581
-7.50955e-14
0.00315581
-7.96426e-14
0.00315581
-8.41575e-14
0.00315581
-8.86348e-14
0.00315581
-9.30816e-14
0.00315581
-9.74964e-14
0.00315581
-1.01904e-13
0.00315581
-1.063e-13
0.00315581
-1.1069e-13
0.00315581
-1.15086e-13
0.00315581
-1.19484e-13
0.00315581
-1.23919e-13
0.00315581
-1.28386e-13
0.00315581
-1.32908e-13
0.00315581
-1.37502e-13
0.00315581
-1.42163e-13
0.00315581
-1.46939e-13
0.00315581
-1.51841e-13
0.00315581
-1.5689e-13
0.00315581
-1.62118e-13
0.00315581
-1.6755e-13
0.00315581
-1.7323e-13
0.00315581
-1.79189e-13
0.00315581
-1.85467e-13
0.00315581
-1.92114e-13
0.00315581
-1.99175e-13
0.00315581
-2.06713e-13
0.00315581
-2.14791e-13
0.00315581
-2.23473e-13
0.00315581
-2.32832e-13
0.00315581
-2.42949e-13
0.00315581
-2.53926e-13
0.00315581
-2.65849e-13
0.00315581
-2.78839e-13
0.00315581
-2.9301e-13
0.00315581
-3.08478e-13
0.00315581
-3.25401e-13
0.00315581
-3.43924e-13
0.00315581
-3.64217e-13
0.00315581
-3.86451e-13
0.00315581
-4.10814e-13
0.00315581
-4.37543e-13
0.00315581
-4.66843e-13
0.00315581
-4.9895e-13
0.00315581
-5.34137e-13
0.00315581
-5.72669e-13
0.00315581
-6.14849e-13
0.00315581
-6.60988e-13
0.00315581
-7.11408e-13
0.00315581
-7.66445e-13
0.00315581
-8.26454e-13
0.00315581
-8.91813e-13
0.00315581
-9.62878e-13
0.00315581
-1.04002e-12
0.00315581
-1.12359e-12
0.00315581
-1.21392e-12
0.00315581
-1.31132e-12