/*--------------------------------*- C++ -*----------------------------------*\
| =========                 |                                                 |
| \\      /  F ield         | OpenFOAM: The Open Source CFD Toolbox           |
|  \\    /   O peration     | Version:  2112                                  |
|   \\  /    A nd           | Website:  www.openfoam.com                      |
|    \\/     M anipulation  |                                                 |
\*---------------------------------------------------------------------------*/
FoamFile
{
    version     2.0;
    format      ascii;
    arch        "LSB;label=32;scalar=64";
    class       volVectorField;
    location    "6";
    object      U;
}
// * * * * * * * * * * * * * * * * * * * * * * * * * * * * * * * * * * * * * //

dimensions      [0 1 -1 0 0 0 0];

internalField   nonuniform List<vector> 
25600
(
(0.0376864 2.35877e-11 0)
(0.0376864 -4.67235e-11 0)
(0.0376864 -7.72671e-11 0)
(0.0376864 -7.33909e-11 0)
(0.0376864 -6.08877e-11 0)
(0.0376864 -5.01503e-11 0)
(0.0376864 -4.14209e-11 0)
(0.0376864 -3.43896e-11 0)
(0.0376864 -2.8755e-11 0)
(0.0376864 -2.41363e-11 0)
(0.0376864 -2.02944e-11 0)
(0.0376864 -1.70851e-11 0)
(0.0376864 -1.44084e-11 0)
(0.0376864 -1.21804e-11 0)
(0.0376864 -1.03249e-11 0)
(0.0376864 -8.77161e-12 0)
(0.0376864 -7.46016e-12 0)
(0.0376864 -6.33997e-12 0)
(0.0376864 -5.37168e-12 0)
(0.0376864 -4.52506e-12 0)
(0.0376864 -3.778e-12 0)
(0.0376864 -3.1138e-12 0)
(0.0376864 -2.52013e-12 0)
(0.0376864 -1.98719e-12 0)
(0.0376864 -1.50698e-12 0)
(0.0376864 -1.07211e-12 0)
(0.0376864 -6.78572e-13 0)
(0.0376864 -3.37783e-13 0)
(0.0376864 -6.16836e-14 0)
(0.0376864 2.27147e-13 0)
(0.0376864 4.96165e-13 0)
(0.0376864 7.37072e-13 0)
(0.0376864 9.53978e-13 0)
(0.0376864 1.15057e-12 0)
(0.0376864 1.32913e-12 0)
(0.0376864 1.49149e-12 0)
(0.0376864 1.63918e-12 0)
(0.0376864 1.77353e-12 0)
(0.0376864 1.89567e-12 0)
(0.0376864 2.00664e-12 0)
(0.0376864 2.10723e-12 0)
(0.0376864 2.1982e-12 0)
(0.0376864 2.28027e-12 0)
(0.0376864 2.35402e-12 0)
(0.0376864 2.42e-12 0)
(0.0376864 2.47871e-12 0)
(0.0376864 2.53057e-12 0)
(0.0376864 2.576e-12 0)
(0.0376864 2.61538e-12 0)
(0.0376864 2.64908e-12 0)
(0.0376864 2.6774e-12 0)
(0.0376864 2.70066e-12 0)
(0.0376864 2.71907e-12 0)
(0.0376864 2.73299e-12 0)
(0.0376864 2.74267e-12 0)
(0.0376864 2.74814e-12 0)
(0.0376864 2.74985e-12 0)
(0.0376864 2.74794e-12 0)
(0.0376864 2.74251e-12 0)
(0.0376864 2.73384e-12 0)
(0.0376864 2.72196e-12 0)
(0.0376864 2.70729e-12 0)
(0.0376864 2.6897e-12 0)
(0.0376864 2.66948e-12 0)
(0.0376864 2.64681e-12 0)
(0.0376864 2.6216e-12 0)
(0.0376864 2.59426e-12 0)
(0.0376864 2.56475e-12 0)
(0.0376864 2.53322e-12 0)
(0.0376864 2.49977e-12 0)
(0.0376864 2.46453e-12 0)
(0.0376864 2.42762e-12 0)
(0.0376864 2.3891e-12 0)
(0.0376864 2.34913e-12 0)
(0.0376864 2.30777e-12 0)
(0.0376864 2.2651e-12 0)
(0.0376864 2.22126e-12 0)
(0.0376864 2.17633e-12 0)
(0.0376864 2.13042e-12 0)
(0.0376864 2.08365e-12 0)
(0.0376864 2.03589e-12 0)
(0.0376864 1.9875e-12 0)
(0.0376864 1.93854e-12 0)
(0.0376864 1.88893e-12 0)
(0.0376864 1.83889e-12 0)
(0.0376864 1.78849e-12 0)
(0.0376864 1.7377e-12 0)
(0.0376864 1.68677e-12 0)
(0.0376864 1.63579e-12 0)
(0.0376864 1.58466e-12 0)
(0.0376864 1.53345e-12 0)
(0.0376864 1.48244e-12 0)
(0.0376864 1.43169e-12 0)
(0.0376864 1.38109e-12 0)
(0.0376864 1.33074e-12 0)
(0.0376864 1.28082e-12 0)
(0.0376864 1.23145e-12 0)
(0.0376864 1.18246e-12 0)
(0.0376864 1.13419e-12 0)
(0.0376864 1.08652e-12 0)
(0.0376864 1.03935e-12 0)
(0.0376864 9.93158e-13 0)
(0.0376864 9.47724e-13 0)
(0.0376864 9.03125e-13 0)
(0.0376864 8.59556e-13 0)
(0.0376864 8.16732e-13 0)
(0.0376864 7.74892e-13 0)
(0.0376864 7.34255e-13 0)
(0.0376864 6.94666e-13 0)
(0.0376864 6.56113e-13 0)
(0.0376864 6.18678e-13 0)
(0.0376864 5.82267e-13 0)
(0.0376864 5.47253e-13 0)
(0.0376864 5.13511e-13 0)
(0.0376864 4.80732e-13 0)
(0.0376864 4.49232e-13 0)
(0.0376864 4.19096e-13 0)
(0.0376864 3.9023e-13 0)
(0.0376864 3.62473e-13 0)
(0.0376864 3.35986e-13 0)
(0.0376864 3.10923e-13 0)
(0.0376864 2.86961e-13 0)
(0.0376864 2.64256e-13 0)
(0.0376864 2.43011e-13 0)
(0.0376864 2.22833e-13 0)
(0.0376864 2.03748e-13 0)
(0.0376864 1.85914e-13 0)
(0.0376864 1.69469e-13 0)
(0.0376864 1.54073e-13 0)
(0.0376864 1.39704e-13 0)
(0.0376864 1.26527e-13 0)
(0.0376864 1.14376e-13 0)
(0.0376864 1.03403e-13 0)
(0.0376864 9.34552e-14 0)
(0.0376864 8.43808e-14 0)
(0.0376864 7.63196e-14 0)
(0.0376864 6.9089e-14 0)
(0.0376864 6.28912e-14 0)
(0.0376864 5.76482e-14 0)
(0.0376864 5.29751e-14 0)
(0.0376864 4.90495e-14 0)
(0.0376864 4.60582e-14 0)
(0.0376864 4.38407e-14 0)
(0.0376864 4.20105e-14 0)
(0.0376864 4.09805e-14 0)
(0.0376864 4.05531e-14 0)
(0.0376864 4.04237e-14 0)
(0.0376864 4.09388e-14 0)
(0.0376864 4.20896e-14 0)
(0.0376864 4.35278e-14 0)
(0.0376864 4.52796e-14 0)
(0.0376864 4.73592e-14 0)
(0.0376864 4.99009e-14 0)
(0.0376864 5.27199e-14 0)
(0.0376864 5.56144e-14 0)
(0.0376864 5.87854e-14 0)
(0.0376864 6.20496e-14 0)
(0.0376864 6.568e-14 0)
(0.0376864 6.93497e-14 0)
(0.0376864 7.29522e-14 0)
(0.0376864 7.6772e-14 0)
(0.0376864 8.04142e-14 0)
(0.0376864 8.42115e-14 0)
(0.0376864 8.81504e-14 0)
(0.0376864 9.16312e-14 0)
(0.0376864 9.5277e-14 0)
(0.0376864 9.89515e-14 0)
(0.0376864 1.02331e-13 0)
(0.0376864 1.05659e-13 0)
(0.0376864 1.08848e-13 0)
(0.0376864 1.11862e-13 0)
(0.0376864 1.14652e-13 0)
(0.0376864 1.17543e-13 0)
(0.0376864 1.19906e-13 0)
(0.0376864 1.22049e-13 0)
(0.0376864 1.24408e-13 0)
(0.0376864 1.26077e-13 0)
(0.0376864 1.27725e-13 0)
(0.0376864 1.2931e-13 0)
(0.0376864 1.30512e-13 0)
(0.0376864 1.31414e-13 0)
(0.0376864 1.32016e-13 0)
(0.0376864 1.32654e-13 0)
(0.0376864 1.33035e-13 0)
(0.0376864 1.33033e-13 0)
(0.0376864 1.32898e-13 0)
(0.0376864 1.3234e-13 0)
(0.0376864 1.31756e-13 0)
(0.0376864 1.31116e-13 0)
(0.0376864 1.29839e-13 0)
(0.0376864 1.28588e-13 0)
(0.0376864 1.27253e-13 0)
(0.0376864 1.25541e-13 0)
(0.0376864 1.237e-13 0)
(0.0376864 1.21664e-13 0)
(0.0376864 1.19428e-13 0)
(0.0376864 1.1697e-13 0)
(0.0376864 1.14627e-13 0)
(0.0376864 1.11787e-13 0)
(0.0376864 1.08769e-13 0)
(0.0376864 1.0603e-13 0)
(0.0376864 1.02697e-13 0)
(0.0376864 9.9397e-14 0)
(0.0376864 9.61976e-14 0)
(0.0376864 9.25565e-14 0)
(0.0376864 8.88672e-14 0)
(0.0376864 8.51208e-14 0)
(0.0376864 8.13695e-14 0)
(0.0376864 7.75116e-14 0)
(0.0376864 7.34305e-14 0)
(0.0376864 6.94024e-14 0)
(0.0376864 6.51511e-14 0)
(0.0376864 6.08513e-14 0)
(0.0376864 5.65804e-14 0)
(0.0376864 5.21188e-14 0)
(0.0376864 4.7778e-14 0)
(0.0376864 4.3327e-14 0)
(0.0376864 3.87323e-14 0)
(0.0376864 3.39232e-14 0)
(0.0376864 2.9176e-14 0)
(0.0376864 2.45359e-14 0)
(0.0376864 1.93851e-14 0)
(0.0376864 1.47901e-14 0)
(0.0376864 9.81395e-15 0)
(0.0376864 4.77386e-15 0)
(0.0376864 3.42709e-16 0)
(0.0376864 -4.79817e-15 0)
(0.0376864 -9.67349e-15 0)
(0.0376864 -1.45918e-14 0)
(0.0376864 -1.9846e-14 0)
(0.0376864 -2.45303e-14 0)
(0.0376864 -2.96801e-14 0)
(0.0376864 -3.49892e-14 0)
(0.0376864 -3.99477e-14 0)
(0.0376864 -4.52089e-14 0)
(0.0376864 -5.03881e-14 0)
(0.0376864 -5.57535e-14 0)
(0.0376864 -6.11598e-14 0)
(0.0376864 -6.65162e-14 0)
(0.0376864 -7.20471e-14 0)
(0.0376864 -7.74555e-14 0)
(0.0376864 -8.29833e-14 0)
(0.0376864 -8.86346e-14 0)
(0.0376864 -9.45152e-14 0)
(0.0376864 -1.00322e-13 0)
(0.0376864 -1.05965e-13 0)
(0.0376864 -1.12187e-13 0)
(0.0376864 -1.17966e-13 0)
(0.0376864 -1.24234e-13 0)
(0.0376864 -1.3067e-13 0)
(0.0376864 -1.36557e-13 0)
(0.0376864 -1.43251e-13 0)
(0.0376864 -1.49738e-13 0)
(0.0376864 -1.56329e-13 0)
(0.0376864 -1.6337e-13 0)
(0.0376864 -1.69914e-13 0)
(0.0376864 -1.77011e-13 0)
(0.0376864 -1.84403e-13 0)
(0.0376864 -1.91537e-13 0)
(0.0376864 -1.9908e-13 0)
(0.0376864 -2.06659e-13 0)
(0.0376864 -2.14565e-13 0)
(0.0376864 -2.22697e-13 0)
(0.0376864 -2.30929e-13 0)
(0.0376864 -2.3953e-13 0)
(0.0376864 -2.48282e-13 0)
(0.0376864 -2.57356e-13 0)
(0.0376864 -2.66847e-13 0)
(0.0376864 -2.76851e-13 0)
(0.0376864 -2.8734e-13 0)
(0.0376864 -2.9817e-13 0)
(0.0376864 -3.0985e-13 0)
(0.0376864 -3.21857e-13 0)
(0.0376864 -3.35211e-13 0)
(0.0376864 -3.4959e-13 0)
(0.0376864 -3.64533e-13 0)
(0.0376864 -3.81324e-13 0)
(0.0376864 -3.99497e-13 0)
(0.0376864 -4.19588e-13 0)
(0.0376864 -4.41883e-13 0)
(0.0376864 -4.65986e-13 0)
(0.0376864 -4.93369e-13 0)
(0.0376864 -5.23899e-13 0)
(0.0376864 -5.57464e-13 0)
(0.0376864 -5.95365e-13 0)
(0.0376864 -6.37564e-13 0)
(0.0376864 -6.84934e-13 0)
(0.0376864 -7.37854e-13 0)
(0.0376864 -7.96962e-13 0)
(0.0376864 -8.62628e-13 0)
(0.0376864 -9.35735e-13 0)
(0.0376864 -1.01744e-12 0)
(0.0376864 -1.10793e-12 0)
(0.0376864 -1.20821e-12 0)
(0.0376864 -1.31931e-12 0)
(0.0376864 -1.44179e-12 0)
(0.0376864 -1.57721e-12 0)
(0.0376864 -1.72577e-12 0)
(0.0376864 -1.88947e-12 0)
(0.0376864 -2.06847e-12 0)
(0.0376864 -2.26264e-12 0)
(0.0376864 -2.47243e-12 0)
(0.0376864 -2.69544e-12 0)
(0.0376864 -2.92719e-12 0)
(0.0376864 -3.15895e-12 0)
(0.0376864 -3.37328e-12 0)
(0.0376864 -3.54255e-12 0)
(0.0376864 -3.61853e-12 0)
(0.0376864 -3.53583e-12 0)
(0.0376864 -3.23027e-12 0)
(0.0376864 -2.64598e-12 0)
(0.0376864 -1.39875e-12 0)
(0.0376864 2.11241e-12 0)
(0.0376864 8.38693e-12 0)
(0.0376864 1.89395e-11 0)
(0.0376864 3.59348e-11 0)
(0.0376864 6.15487e-11 0)
(0.0376864 9.38374e-11 0)
(0.0376864 1.13825e-10 0)
(0.0376864 9.12432e-11 0)
(0.111172 2.6926e-10 0)
(0.111172 -1.2262e-10 0)
(0.111172 -3.86156e-10 0)
(0.111172 -4.80616e-10 0)
(0.111172 -4.80513e-10 0)
(0.111172 -4.48371e-10 0)
(0.111172 -4.06955e-10 0)
(0.111172 -3.63698e-10 0)
(0.111172 -3.22383e-10 0)
(0.111172 -2.84314e-10 0)
(0.111172 -2.49812e-10 0)
(0.111172 -2.18849e-10 0)
(0.111172 -1.9124e-10 0)
(0.111172 -1.66717e-10 0)
(0.111172 -1.44966e-10 0)
(0.111172 -1.25662e-10 0)
(0.111172 -1.08494e-10 0)
(0.111172 -9.31816e-11 0)
(0.111172 -7.94795e-11 0)
(0.111172 -6.71813e-11 0)
(0.111172 -5.6114e-11 0)
(0.111172 -4.61334e-11 0)
(0.111172 -3.71178e-11 0)
(0.111172 -2.8964e-11 0)
(0.111172 -2.15826e-11 0)
(0.111172 -1.48958e-11 0)
(0.111172 -8.8366e-12 0)
(0.111172 -3.35665e-12 0)
(0.111172 1.57881e-12 0)
(0.111172 6.08243e-12 0)
(0.111172 1.01726e-11 0)
(0.111172 1.38785e-11 0)
(0.111172 1.7234e-11 0)
(0.111172 2.02708e-11 0)
(0.111172 2.30165e-11 0)
(0.111172 2.54964e-11 0)
(0.111172 2.7733e-11 0)
(0.111172 2.97461e-11 0)
(0.111172 3.15539e-11 0)
(0.111172 3.31727e-11 0)
(0.111172 3.46169e-11 0)
(0.111172 3.58999e-11 0)
(0.111172 3.70335e-11 0)
(0.111172 3.80286e-11 0)
(0.111172 3.8895e-11 0)
(0.111172 3.96418e-11 0)
(0.111172 4.02771e-11 0)
(0.111172 4.08085e-11 0)
(0.111172 4.12428e-11 0)
(0.111172 4.15865e-11 0)
(0.111172 4.18455e-11 0)
(0.111172 4.20251e-11 0)
(0.111172 4.21303e-11 0)
(0.111172 4.21659e-11 0)
(0.111172 4.21362e-11 0)
(0.111172 4.2045e-11 0)
(0.111172 4.18964e-11 0)
(0.111172 4.16939e-11 0)
(0.111172 4.14407e-11 0)
(0.111172 4.11399e-11 0)
(0.111172 4.07944e-11 0)
(0.111172 4.04073e-11 0)
(0.111172 3.99809e-11 0)
(0.111172 3.95179e-11 0)
(0.111172 3.90207e-11 0)
(0.111172 3.84913e-11 0)
(0.111172 3.79323e-11 0)
(0.111172 3.73456e-11 0)
(0.111172 3.67331e-11 0)
(0.111172 3.60969e-11 0)
(0.111172 3.54389e-11 0)
(0.111172 3.47609e-11 0)
(0.111172 3.40647e-11 0)
(0.111172 3.3352e-11 0)
(0.111172 3.26244e-11 0)
(0.111172 3.18833e-11 0)
(0.111172 3.11308e-11 0)
(0.111172 3.0368e-11 0)
(0.111172 2.95966e-11 0)
(0.111172 2.8818e-11 0)
(0.111172 2.80335e-11 0)
(0.111172 2.72446e-11 0)
(0.111172 2.64528e-11 0)
(0.111172 2.56592e-11 0)
(0.111172 2.48652e-11 0)
(0.111172 2.40719e-11 0)
(0.111172 2.32806e-11 0)
(0.111172 2.24926e-11 0)
(0.111172 2.1709e-11 0)
(0.111172 2.09307e-11 0)
(0.111172 2.01588e-11 0)
(0.111172 1.93945e-11 0)
(0.111172 1.86389e-11 0)
(0.111172 1.78926e-11 0)
(0.111172 1.71566e-11 0)
(0.111172 1.64317e-11 0)
(0.111172 1.57191e-11 0)
(0.111172 1.50192e-11 0)
(0.111172 1.43329e-11 0)
(0.111172 1.36608e-11 0)
(0.111172 1.30034e-11 0)
(0.111172 1.23618e-11 0)
(0.111172 1.17361e-11 0)
(0.111172 1.11271e-11 0)
(0.111172 1.05352e-11 0)
(0.111172 9.96038e-12 0)
(0.111172 9.40331e-12 0)
(0.111172 8.86469e-12 0)
(0.111172 8.34449e-12 0)
(0.111172 7.84277e-12 0)
(0.111172 7.35982e-12 0)
(0.111172 6.89559e-12 0)
(0.111172 6.45069e-12 0)
(0.111172 6.02501e-12 0)
(0.111172 5.61808e-12 0)
(0.111172 5.23026e-12 0)
(0.111172 4.86155e-12 0)
(0.111172 4.51172e-12 0)
(0.111172 4.18045e-12 0)
(0.111172 3.8677e-12 0)
(0.111172 3.57339e-12 0)
(0.111172 3.29686e-12 0)
(0.111172 3.03821e-12 0)
(0.111172 2.79722e-12 0)
(0.111172 2.57297e-12 0)
(0.111172 2.36517e-12 0)
(0.111172 2.17368e-12 0)
(0.111172 1.99821e-12 0)
(0.111172 1.83794e-12 0)
(0.111172 1.69237e-12 0)
(0.111172 1.56125e-12 0)
(0.111172 1.44386e-12 0)
(0.111172 1.33989e-12 0)
(0.111172 1.24864e-12 0)
(0.111172 1.16949e-12 0)
(0.111172 1.10194e-12 0)
(0.111172 1.04523e-12 0)
(0.111172 9.99307e-13 0)
(0.111172 9.63349e-13 0)
(0.111172 9.36247e-13 0)
(0.111172 9.18128e-13 0)
(0.111172 9.08185e-13 0)
(0.111172 9.05789e-13 0)
(0.111172 9.1034e-13 0)
(0.111172 9.2132e-13 0)
(0.111172 9.38077e-13 0)
(0.111172 9.59873e-13 0)
(0.111172 9.86937e-13 0)
(0.111172 1.01822e-12 0)
(0.111172 1.05288e-12 0)
(0.111172 1.09091e-12 0)
(0.111172 1.13161e-12 0)
(0.111172 1.17476e-12 0)
(0.111172 1.21978e-12 0)
(0.111172 1.26594e-12 0)
(0.111172 1.31315e-12 0)
(0.111172 1.36098e-12 0)
(0.111172 1.40922e-12 0)
(0.111172 1.45735e-12 0)
(0.111172 1.50476e-12 0)
(0.111172 1.55152e-12 0)
(0.111172 1.59698e-12 0)
(0.111172 1.64135e-12 0)
(0.111172 1.6842e-12 0)
(0.111172 1.72468e-12 0)
(0.111172 1.76347e-12 0)
(0.111172 1.80007e-12 0)
(0.111172 1.83409e-12 0)
(0.111172 1.86564e-12 0)
(0.111172 1.89444e-12 0)
(0.111172 1.9203e-12 0)
(0.111172 1.94311e-12 0)
(0.111172 1.96331e-12 0)
(0.111172 1.97999e-12 0)
(0.111172 1.99345e-12 0)
(0.111172 2.00426e-12 0)
(0.111172 2.01121e-12 0)
(0.111172 2.0152e-12 0)
(0.111172 2.01618e-12 0)
(0.111172 2.01367e-12 0)
(0.111172 2.00788e-12 0)
(0.111172 1.99881e-12 0)
(0.111172 1.987e-12 0)
(0.111172 1.97215e-12 0)
(0.111172 1.95412e-12 0)
(0.111172 1.93319e-12 0)
(0.111172 1.90915e-12 0)
(0.111172 1.88267e-12 0)
(0.111172 1.85364e-12 0)
(0.111172 1.82148e-12 0)
(0.111172 1.78717e-12 0)
(0.111172 1.75062e-12 0)
(0.111172 1.71163e-12 0)
(0.111172 1.67056e-12 0)
(0.111172 1.62731e-12 0)
(0.111172 1.58203e-12 0)
(0.111172 1.53479e-12 0)
(0.111172 1.48627e-12 0)
(0.111172 1.43568e-12 0)
(0.111172 1.38343e-12 0)
(0.111172 1.33036e-12 0)
(0.111172 1.27546e-12 0)
(0.111172 1.21943e-12 0)
(0.111172 1.16258e-12 0)
(0.111172 1.10437e-12 0)
(0.111172 1.04532e-12 0)
(0.111172 9.85447e-13 0)
(0.111172 9.24995e-13 0)
(0.111172 8.63786e-13 0)
(0.111172 8.01812e-13 0)
(0.111172 7.39551e-13 0)
(0.111172 6.76609e-13 0)
(0.111172 6.13392e-13 0)
(0.111172 5.49906e-13 0)
(0.111172 4.86061e-13 0)
(0.111172 4.22378e-13 0)
(0.111172 3.58346e-13 0)
(0.111172 2.94097e-13 0)
(0.111172 2.29603e-13 0)
(0.111172 1.65256e-13 0)
(0.111172 1.0126e-13 0)
(0.111172 3.67296e-14 0)
(0.111172 -2.71502e-14 0)
(0.111172 -9.13652e-14 0)
(0.111172 -1.55496e-13 0)
(0.111172 -2.18554e-13 0)
(0.111172 -2.82352e-13 0)
(0.111172 -3.45736e-13 0)
(0.111172 -4.08978e-13 0)
(0.111172 -4.72381e-13 0)
(0.111172 -5.34835e-13 0)
(0.111172 -5.97715e-13 0)
(0.111172 -6.60622e-13 0)
(0.111172 -7.22976e-13 0)
(0.111172 -7.85571e-13 0)
(0.111172 -8.47874e-13 0)
(0.111172 -9.10386e-13 0)
(0.111172 -9.72916e-13 0)
(0.111172 -1.03541e-12 0)
(0.111172 -1.09803e-12 0)
(0.111172 -1.16045e-12 0)
(0.111172 -1.2233e-12 0)
(0.111172 -1.28648e-12 0)
(0.111172 -1.35025e-12 0)
(0.111172 -1.41427e-12 0)
(0.111172 -1.4783e-12 0)
(0.111172 -1.54365e-12 0)
(0.111172 -1.60907e-12 0)
(0.111172 -1.67582e-12 0)
(0.111172 -1.74365e-12 0)
(0.111172 -1.81162e-12 0)
(0.111172 -1.88185e-12 0)
(0.111172 -1.95326e-12 0)
(0.111172 -2.02631e-12 0)
(0.111172 -2.10166e-12 0)
(0.111172 -2.17835e-12 0)
(0.111172 -2.25807e-12 0)
(0.111172 -2.34082e-12 0)
(0.111172 -2.42619e-12 0)
(0.111172 -2.51537e-12 0)
(0.111172 -2.60827e-12 0)
(0.111172 -2.7059e-12 0)
(0.111172 -2.80867e-12 0)
(0.111172 -2.91692e-12 0)
(0.111172 -3.03162e-12 0)
(0.111172 -3.15323e-12 0)
(0.111172 -3.28298e-12 0)
(0.111172 -3.42171e-12 0)
(0.111172 -3.57049e-12 0)
(0.111172 -3.73059e-12 0)
(0.111172 -3.90248e-12 0)
(0.111172 -4.08914e-12 0)
(0.111172 -4.29131e-12 0)
(0.111172 -4.51101e-12 0)
(0.111172 -4.75039e-12 0)
(0.111172 -5.01067e-12 0)
(0.111172 -5.29594e-12 0)
(0.111172 -5.60799e-12 0)
(0.111172 -5.95004e-12 0)
(0.111172 -6.32558e-12 0)
(0.111172 -6.73733e-12 0)
(0.111172 -7.18994e-12 0)
(0.111172 -7.68782e-12 0)
(0.111172 -8.23529e-12 0)
(0.111172 -8.83698e-12 0)
(0.111172 -9.4979e-12 0)
(0.111172 -1.02243e-11 0)
(0.111172 -1.10216e-11 0)
(0.111172 -1.18957e-11 0)
(0.111172 -1.28525e-11 0)
(0.111172 -1.38985e-11 0)
(0.111172 -1.50409e-11 0)
(0.111172 -1.62849e-11 0)
(0.111172 -1.76372e-11 0)
(0.111172 -1.91033e-11 0)
(0.111172 -2.06875e-11 0)
(0.111172 -2.23942e-11 0)
(0.111172 -2.42234e-11 0)
(0.111172 -2.61716e-11 0)
(0.111172 -2.82288e-11 0)
(0.111172 -3.03733e-11 0)
(0.111172 -3.257e-11 0)
(0.111172 -3.47559e-11 0)
(0.111172 -3.68321e-11 0)
(0.111172 -3.86421e-11 0)
(0.111172 -3.9943e-11 0)
(0.111172 -4.03641e-11 0)
(0.111172 -3.93398e-11 0)
(0.111172 -3.60154e-11 0)
(0.111172 -2.91086e-11 0)
(0.111172 -1.66723e-11 0)
(0.111172 4.43077e-12 0)
(0.111172 3.96078e-11 0)
(0.111172 9.50084e-11 0)
(0.111172 1.78764e-10 0)
(0.111172 2.99054e-10 0)
(0.111172 4.56653e-10 0)
(0.111172 6.23909e-10 0)
(0.111172 7.12223e-10 0)
(0.111172 6.00542e-10 0)
(0.182767 6.42779e-10 0)
(0.182767 -1.12994e-10 0)
(0.182767 -6.91936e-10 0)
(0.182767 -9.72157e-10 0)
(0.182767 -1.04726e-09 0)
(0.182767 -1.02955e-09 0)
(0.182767 -9.70437e-10 0)
(0.182767 -8.92776e-10 0)
(0.182767 -8.09552e-10 0)
(0.182767 -7.27178e-10 0)
(0.182767 -6.48696e-10 0)
(0.182767 -5.75494e-10 0)
(0.182767 -5.08101e-10 0)
(0.182767 -4.4657e-10 0)
(0.182767 -3.90681e-10 0)
(0.182767 -3.40072e-10 0)
(0.182767 -2.94313e-10 0)
(0.182767 -2.52963e-10 0)
(0.182767 -2.15593e-10 0)
(0.182767 -1.81806e-10 0)
(0.182767 -1.51243e-10 0)
(0.182767 -1.23579e-10 0)
(0.182767 -9.85296e-11 0)
(0.182767 -7.58386e-11 0)
(0.182767 -5.52793e-11 0)
(0.182767 -3.66493e-11 0)
(0.182767 -1.97673e-11 0)
(0.182767 -4.46888e-12 0)
(0.182767 9.39228e-12 0)
(0.182767 2.19337e-11 0)
(0.182767 3.32865e-11 0)
(0.182767 4.35575e-11 0)
(0.182767 5.28409e-11 0)
(0.182767 6.12224e-11 0)
(0.182767 6.87796e-11 0)
(0.182767 7.55824e-11 0)
(0.182767 8.16944e-11 0)
(0.182767 8.71724e-11 0)
(0.182767 9.20681e-11 0)
(0.182767 9.64278e-11 0)
(0.182767 1.00294e-10 0)
(0.182767 1.03704e-10 0)
(0.182767 1.06694e-10 0)
(0.182767 1.09294e-10 0)
(0.182767 1.11533e-10 0)
(0.182767 1.13437e-10 0)
(0.182767 1.1503e-10 0)
(0.182767 1.16334e-10 0)
(0.182767 1.17368e-10 0)
(0.182767 1.1815e-10 0)
(0.182767 1.18698e-10 0)
(0.182767 1.19027e-10 0)
(0.182767 1.19152e-10 0)
(0.182767 1.19085e-10 0)
(0.182767 1.18839e-10 0)
(0.182767 1.18425e-10 0)
(0.182767 1.17854e-10 0)
(0.182767 1.17136e-10 0)
(0.182767 1.1628e-10 0)
(0.182767 1.15296e-10 0)
(0.182767 1.1419e-10 0)
(0.182767 1.12973e-10 0)
(0.182767 1.1165e-10 0)
(0.182767 1.10228e-10 0)
(0.182767 1.08715e-10 0)
(0.182767 1.07117e-10 0)
(0.182767 1.05441e-10 0)
(0.182767 1.03691e-10 0)
(0.182767 1.01874e-10 0)
(0.182767 9.99955e-11 0)
(0.182767 9.80602e-11 0)
(0.182767 9.60739e-11 0)
(0.182767 9.40412e-11 0)
(0.182767 9.19669e-11 0)
(0.182767 8.98558e-11 0)
(0.182767 8.77124e-11 0)
(0.182767 8.55411e-11 0)
(0.182767 8.33462e-11 0)
(0.182767 8.11319e-11 0)
(0.182767 7.89023e-11 0)
(0.182767 7.66613e-11 0)
(0.182767 7.44127e-11 0)
(0.182767 7.21604e-11 0)
(0.182767 6.99083e-11 0)
(0.182767 6.76596e-11 0)
(0.182767 6.54176e-11 0)
(0.182767 6.3186e-11 0)
(0.182767 6.0968e-11 0)
(0.182767 5.87664e-11 0)
(0.182767 5.65842e-11 0)
(0.182767 5.44245e-11 0)
(0.182767 5.22901e-11 0)
(0.182767 5.01836e-11 0)
(0.182767 4.81076e-11 0)
(0.182767 4.60641e-11 0)
(0.182767 4.40555e-11 0)
(0.182767 4.20845e-11 0)
(0.182767 4.01526e-11 0)
(0.182767 3.8262e-11 0)
(0.182767 3.64142e-11 0)
(0.182767 3.46109e-11 0)
(0.182767 3.28538e-11 0)
(0.182767 3.11443e-11 0)
(0.182767 2.94835e-11 0)
(0.182767 2.78726e-11 0)
(0.182767 2.63122e-11 0)
(0.182767 2.48033e-11 0)
(0.182767 2.33473e-11 0)
(0.182767 2.19443e-11 0)
(0.182767 2.05944e-11 0)
(0.182767 1.92983e-11 0)
(0.182767 1.80559e-11 0)
(0.182767 1.68677e-11 0)
(0.182767 1.57336e-11 0)
(0.182767 1.46532e-11 0)
(0.182767 1.36264e-11 0)
(0.182767 1.26527e-11 0)
(0.182767 1.17317e-11 0)
(0.182767 1.08629e-11 0)
(0.182767 1.00455e-11 0)
(0.182767 9.27852e-12 0)
(0.182767 8.56108e-12 0)
(0.182767 7.89289e-12 0)
(0.182767 7.27245e-12 0)
(0.182767 6.69807e-12 0)
(0.182767 6.16905e-12 0)
(0.182767 5.68428e-12 0)
(0.182767 5.24235e-12 0)
(0.182767 4.8416e-12 0)
(0.182767 4.48067e-12 0)
(0.182767 4.15839e-12 0)
(0.182767 3.87289e-12 0)
(0.182767 3.62273e-12 0)
(0.182767 3.40654e-12 0)
(0.182767 3.22226e-12 0)
(0.182767 3.06852e-12 0)
(0.182767 2.94359e-12 0)
(0.182767 2.84631e-12 0)
(0.182767 2.77467e-12 0)
(0.182767 2.72659e-12 0)
(0.182767 2.70095e-12 0)
(0.182767 2.69605e-12 0)
(0.182767 2.71075e-12 0)
(0.182767 2.74292e-12 0)
(0.182767 2.79063e-12 0)
(0.182767 2.8528e-12 0)
(0.182767 2.92779e-12 0)
(0.182767 3.01466e-12 0)
(0.182767 3.11171e-12 0)
(0.182767 3.21711e-12 0)
(0.182767 3.32971e-12 0)
(0.182767 3.4485e-12 0)
(0.182767 3.57235e-12 0)
(0.182767 3.69942e-12 0)
(0.182767 3.82879e-12 0)
(0.182767 3.95993e-12 0)
(0.182767 4.09136e-12 0)
(0.182767 4.22196e-12 0)
(0.182767 4.35145e-12 0)
(0.182767 4.47828e-12 0)
(0.182767 4.60165e-12 0)
(0.182767 4.72113e-12 0)
(0.182767 4.8363e-12 0)
(0.182767 4.94569e-12 0)
(0.182767 5.04906e-12 0)
(0.182767 5.14658e-12 0)
(0.182767 5.23664e-12 0)
(0.182767 5.3197e-12 0)
(0.182767 5.39528e-12 0)
(0.182767 5.46263e-12 0)
(0.182767 5.52148e-12 0)
(0.182767 5.57163e-12 0)
(0.182767 5.61367e-12 0)
(0.182767 5.64679e-12 0)
(0.182767 5.67079e-12 0)
(0.182767 5.68603e-12 0)
(0.182767 5.69181e-12 0)
(0.182767 5.68884e-12 0)
(0.182767 5.67728e-12 0)
(0.182767 5.65629e-12 0)
(0.182767 5.62672e-12 0)
(0.182767 5.5886e-12 0)
(0.182767 5.54196e-12 0)
(0.182767 5.48725e-12 0)
(0.182767 5.42446e-12 0)
(0.182767 5.35369e-12 0)
(0.182767 5.27508e-12 0)
(0.182767 5.18967e-12 0)
(0.182767 5.0968e-12 0)
(0.182767 4.99695e-12 0)
(0.182767 4.89118e-12 0)
(0.182767 4.77874e-12 0)
(0.182767 4.66063e-12 0)
(0.182767 4.53716e-12 0)
(0.182767 4.40808e-12 0)
(0.182767 4.2738e-12 0)
(0.182767 4.13465e-12 0)
(0.182767 3.99172e-12 0)
(0.182767 3.84468e-12 0)
(0.182767 3.69333e-12 0)
(0.182767 3.53893e-12 0)
(0.182767 3.38135e-12 0)
(0.182767 3.22056e-12 0)
(0.182767 3.05736e-12 0)
(0.182767 2.89195e-12 0)
(0.182767 2.72449e-12 0)
(0.182767 2.55496e-12 0)
(0.182767 2.38406e-12 0)
(0.182767 2.21143e-12 0)
(0.182767 2.03778e-12 0)
(0.182767 1.86336e-12 0)
(0.182767 1.68779e-12 0)
(0.182767 1.51224e-12 0)
(0.182767 1.33575e-12 0)
(0.182767 1.15916e-12 0)
(0.182767 9.83166e-13 0)
(0.182767 8.06441e-13 0)
(0.182767 6.30116e-13 0)
(0.182767 4.54096e-13 0)
(0.182767 2.78274e-13 0)
(0.182767 1.03751e-13 0)
(0.182767 -7.05404e-14 0)
(0.182767 -2.44461e-13 0)
(0.182767 -4.1777e-13 0)
(0.182767 -5.90405e-13 0)
(0.182767 -7.61436e-13 0)
(0.182767 -9.3222e-13 0)
(0.182767 -1.10235e-12 0)
(0.182767 -1.2715e-12 0)
(0.182767 -1.43977e-12 0)
(0.182767 -1.60691e-12 0)
(0.182767 -1.77368e-12 0)
(0.182767 -1.93961e-12 0)
(0.182767 -2.10497e-12 0)
(0.182767 -2.26986e-12 0)
(0.182767 -2.43389e-12 0)
(0.182767 -2.59772e-12 0)
(0.182767 -2.76119e-12 0)
(0.182767 -2.92489e-12 0)
(0.182767 -3.08821e-12 0)
(0.182767 -3.25109e-12 0)
(0.182767 -3.41531e-12 0)
(0.182767 -3.57973e-12 0)
(0.182767 -3.74529e-12 0)
(0.182767 -3.91214e-12 0)
(0.182767 -4.07943e-12 0)
(0.182767 -4.2494e-12 0)
(0.182767 -4.42133e-12 0)
(0.182767 -4.59586e-12 0)
(0.182767 -4.77395e-12 0)
(0.182767 -4.95458e-12 0)
(0.182767 -5.14032e-12 0)
(0.182767 -5.33115e-12 0)
(0.182767 -5.52724e-12 0)
(0.182767 -5.73022e-12 0)
(0.182767 -5.94022e-12 0)
(0.182767 -6.15913e-12 0)
(0.182767 -6.38788e-12 0)
(0.182767 -6.62722e-12 0)
(0.182767 -6.87898e-12 0)
(0.182767 -7.14424e-12 0)
(0.182767 -7.42524e-12 0)
(0.182767 -7.72396e-12 0)
(0.182767 -8.0423e-12 0)
(0.182767 -8.38223e-12 0)
(0.182767 -8.74619e-12 0)
(0.182767 -9.13788e-12 0)
(0.182767 -9.55921e-12 0)
(0.182767 -1.00146e-11 0)
(0.182767 -1.05073e-11 0)
(0.182767 -1.10402e-11 0)
(0.182767 -1.16194e-11 0)
(0.182767 -1.2249e-11 0)
(0.182767 -1.29344e-11 0)
(0.182767 -1.36812e-11 0)
(0.182767 -1.44945e-11 0)
(0.182767 -1.53832e-11 0)
(0.182767 -1.63535e-11 0)
(0.182767 -1.74125e-11 0)
(0.182767 -1.857e-11 0)
(0.182767 -1.98341e-11 0)
(0.182767 -2.12153e-11 0)
(0.182767 -2.27238e-11 0)
(0.182767 -2.43704e-11 0)
(0.182767 -2.61664e-11 0)
(0.182767 -2.81238e-11 0)
(0.182767 -3.02563e-11 0)
(0.182767 -3.25758e-11 0)
(0.182767 -3.50952e-11 0)
(0.182767 -3.78274e-11 0)
(0.182767 -4.07841e-11 0)
(0.182767 -4.39774e-11 0)
(0.182767 -4.74162e-11 0)
(0.182767 -5.11096e-11 0)
(0.182767 -5.50613e-11 0)
(0.182767 -5.927e-11 0)
(0.182767 -6.37306e-11 0)
(0.182767 -6.84252e-11 0)
(0.182767 -7.3323e-11 0)
(0.182767 -7.83729e-11 0)
(0.182767 -8.34933e-11 0)
(0.182767 -8.85623e-11 0)
(0.182767 -9.33918e-11 0)
(0.182767 -9.76997e-11 0)
(0.182767 -1.01067e-10 0)
(0.182767 -1.02865e-10 0)
(0.182767 -1.0216e-10 0)
(0.182767 -9.75529e-11 0)
(0.182767 -8.69613e-11 0)
(0.182767 -6.72814e-11 0)
(0.182767 -3.39248e-11 0)
(0.182767 1.97357e-11 0)
(0.182767 1.02674e-10 0)
(0.182767 2.26998e-10 0)
(0.182767 4.06233e-10 0)
(0.182767 6.50701e-10 0)
(0.182767 9.54825e-10 0)
(0.182767 1.26246e-09 0)
(0.182767 1.42427e-09 0)
(0.182767 1.2359e-09 0)
(0.252465 1.046e-09 0)
(0.252465 1.03042e-11 0)
(0.252465 -8.67837e-10 0)
(0.252465 -1.37124e-09 0)
(0.252465 -1.57716e-09 0)
(0.252465 -1.62206e-09 0)
(0.252465 -1.58075e-09 0)
(0.252465 -1.49214e-09 0)
(0.252465 -1.38076e-09 0)
(0.252465 -1.26068e-09 0)
(0.252465 -1.13978e-09 0)
(0.252465 -1.02247e-09 0)
(0.252465 -9.11155e-10 0)
(0.252465 -8.07027e-10 0)
(0.252465 -7.10543e-10 0)
(0.252465 -6.21711e-10 0)
(0.252465 -5.40274e-10 0)
(0.252465 -4.65828e-10 0)
(0.252465 -3.97901e-10 0)
(0.252465 -3.35996e-10 0)
(0.252465 -2.79624e-10 0)
(0.252465 -2.28317e-10 0)
(0.252465 -1.81639e-10 0)
(0.252465 -1.39186e-10 0)
(0.252465 -1.00588e-10 0)
(0.252465 -6.5508e-11 0)
(0.252465 -3.36378e-11 0)
(0.252465 -4.69589e-12 0)
(0.252465 2.15802e-11 0)
(0.252465 4.54092e-11 0)
(0.252465 6.70044e-11 0)
(0.252465 8.65589e-11 0)
(0.252465 1.04246e-10 0)
(0.252465 1.20223e-10 0)
(0.252465 1.34633e-10 0)
(0.252465 1.47605e-10 0)
(0.252465 1.59256e-10 0)
(0.252465 1.69692e-10 0)
(0.252465 1.79012e-10 0)
(0.252465 1.87301e-10 0)
(0.252465 1.9464e-10 0)
(0.252465 2.01102e-10 0)
(0.252465 2.06752e-10 0)
(0.252465 2.1165e-10 0)
(0.252465 2.15851e-10 0)
(0.252465 2.19406e-10 0)
(0.252465 2.2236e-10 0)
(0.252465 2.24754e-10 0)
(0.252465 2.26628e-10 0)
(0.252465 2.28016e-10 0)
(0.252465 2.28951e-10 0)
(0.252465 2.29464e-10 0)
(0.252465 2.29582e-10 0)
(0.252465 2.29331e-10 0)
(0.252465 2.28735e-10 0)
(0.252465 2.27816e-10 0)
(0.252465 2.26595e-10 0)
(0.252465 2.25091e-10 0)
(0.252465 2.23323e-10 0)
(0.252465 2.21308e-10 0)
(0.252465 2.19063e-10 0)
(0.252465 2.16602e-10 0)
(0.252465 2.1394e-10 0)
(0.252465 2.11092e-10 0)
(0.252465 2.08069e-10 0)
(0.252465 2.04886e-10 0)
(0.252465 2.01554e-10 0)
(0.252465 1.98085e-10 0)
(0.252465 1.94489e-10 0)
(0.252465 1.90779e-10 0)
(0.252465 1.86963e-10 0)
(0.252465 1.83053e-10 0)
(0.252465 1.79058e-10 0)
(0.252465 1.74987e-10 0)
(0.252465 1.7085e-10 0)
(0.252465 1.66655e-10 0)
(0.252465 1.62411e-10 0)
(0.252465 1.58127e-10 0)
(0.252465 1.5381e-10 0)
(0.252465 1.49469e-10 0)
(0.252465 1.45112e-10 0)
(0.252465 1.40745e-10 0)
(0.252465 1.36376e-10 0)
(0.252465 1.32012e-10 0)
(0.252465 1.2766e-10 0)
(0.252465 1.23327e-10 0)
(0.252465 1.19018e-10 0)
(0.252465 1.14741e-10 0)
(0.252465 1.10501e-10 0)
(0.252465 1.06303e-10 0)
(0.252465 1.02153e-10 0)
(0.252465 9.80571e-11 0)
(0.252465 9.40192e-11 0)
(0.252465 9.00444e-11 0)
(0.252465 8.61371e-11 0)
(0.252465 8.23013e-11 0)
(0.252465 7.85417e-11 0)
(0.252465 7.48616e-11 0)
(0.252465 7.12646e-11 0)
(0.252465 6.77537e-11 0)
(0.252465 6.4332e-11 0)
(0.252465 6.10025e-11 0)
(0.252465 5.77671e-11 0)
(0.252465 5.46287e-11 0)
(0.252465 5.15889e-11 0)
(0.252465 4.86489e-11 0)
(0.252465 4.58104e-11 0)
(0.252465 4.3075e-11 0)
(0.252465 4.04434e-11 0)
(0.252465 3.79158e-11 0)
(0.252465 3.5493e-11 0)
(0.252465 3.31747e-11 0)
(0.252465 3.09615e-11 0)
(0.252465 2.88529e-11 0)
(0.252465 2.68481e-11 0)
(0.252465 2.49466e-11 0)
(0.252465 2.31473e-11 0)
(0.252465 2.14497e-11 0)
(0.252465 1.98516e-11 0)
(0.252465 1.83517e-11 0)
(0.252465 1.69483e-11 0)
(0.252465 1.56395e-11 0)
(0.252465 1.44239e-11 0)
(0.252465 1.32988e-11 0)
(0.252465 1.22613e-11 0)
(0.252465 1.13095e-11 0)
(0.252465 1.04408e-11 0)
(0.252465 9.65283e-12 0)
(0.252465 8.94239e-12 0)
(0.252465 8.30644e-12 0)
(0.252465 7.74241e-12 0)
(0.252465 7.24718e-12 0)
(0.252465 6.81762e-12 0)
(0.252465 6.45052e-12 0)
(0.252465 6.14284e-12 0)
(0.252465 5.89168e-12 0)
(0.252465 5.69346e-12 0)
(0.252465 5.54544e-12 0)
(0.252465 5.4442e-12 0)
(0.252465 5.38606e-12 0)
(0.252465 5.36846e-12 0)
(0.252465 5.38821e-12 0)
(0.252465 5.44262e-12 0)
(0.252465 5.52835e-12 0)
(0.252465 5.64177e-12 0)
(0.252465 5.78043e-12 0)
(0.252465 5.94169e-12 0)
(0.252465 6.12298e-12 0)
(0.252465 6.32151e-12 0)
(0.252465 6.53418e-12 0)
(0.252465 6.7585e-12 0)
(0.252465 6.9925e-12 0)
(0.252465 7.23411e-12 0)
(0.252465 7.4804e-12 0)
(0.252465 7.7294e-12 0)
(0.252465 7.97952e-12 0)
(0.252465 8.2285e-12 0)
(0.252465 8.47474e-12 0)
(0.252465 8.717e-12 0)
(0.252465 8.95289e-12 0)
(0.252465 9.18095e-12 0)
(0.252465 9.40035e-12 0)
(0.252465 9.60976e-12 0)
(0.252465 9.8077e-12 0)
(0.252465 9.99355e-12 0)
(0.252465 1.01663e-11 0)
(0.252465 1.03245e-11 0)
(0.252465 1.04687e-11 0)
(0.252465 1.05974e-11 0)
(0.252465 1.07099e-11 0)
(0.252465 1.08062e-11 0)
(0.252465 1.08854e-11 0)
(0.252465 1.09482e-11 0)
(0.252465 1.09938e-11 0)
(0.252465 1.10221e-11 0)
(0.252465 1.10333e-11 0)
(0.252465 1.10266e-11 0)
(0.252465 1.10028e-11 0)
(0.252465 1.09624e-11 0)
(0.252465 1.0905e-11 0)
(0.252465 1.08309e-11 0)